+ 10 0 1 cbr 210 ------- 1 0.0 1.0 0 0
- 10 0 1 cbr 210 ------- 1 0.0 1.0 0 0
+ 10.00375 0 1 cbr 210 ------- 1 0.0 1.0 1 1
- 10.00375 0 1 cbr 210 ------- 1 0.0 1.0 1 1
+ 10.0075 0 1 cbr 210 ------- 1 0.0 1.0 2 2
- 10.0075 0 1 cbr 210 ------- 1 0.0 1.0 2 2
r 10.01084 0 1 cbr 210 ------- 1 0.0 1.0 0 0
+ 10.01125 0 1 cbr 210 ------- 1 0.0 1.0 3 3
- 10.01125 0 1 cbr 210 ------- 1 0.0 1.0 3 3
r 10.01459 0 1 cbr 210 ------- 1 0.0 1.0 1 1
+ 10.015 0 1 cbr 210 ------- 1 0.0 1.0 4 4
- 10.015 0 1 cbr 210 ------- 1 0.0 1.0 4 4
r 10.01834 0 1 cbr 210 ------- 1 0.0 1.0 2 2
+ 10.01875 0 1 cbr 210 ------- 1 0.0 1.0 5 5
- 10.01875 0 1 cbr 210 ------- 1 0.0 1.0 5 5
r 10.02209 0 1 cbr 210 ------- 1 0.0 1.0 3 3
+ 10.0225 0 1 cbr 210 ------- 1 0.0 1.0 6 6
- 10.0225 0 1 cbr 210 ------- 1 0.0 1.0 6 6
r 10.02584 0 1 cbr 210 ------- 1 0.0 1.0 4 4
+ 10.02625 0 1 cbr 210 ------- 1 0.0 1.0 7 7
- 10.02625 0 1 cbr 210 ------- 1 0.0 1.0 7 7
r 10.02959 0 1 cbr 210 ------- 1 0.0 1.0 5 5
+ 10.03 0 1 cbr 210 ------- 1 0.0 1.0 8 8
- 10.03 0 1 cbr 210 ------- 1 0.0 1.0 8 8
r 10.03334 0 1 cbr 210 ------- 1 0.0 1.0 6 6
+ 10.03375 0 1 cbr 210 ------- 1 0.0 1.0 9 9
- 10.03375 0 1 cbr 210 ------- 1 0.0 1.0 9 9
r 10.03709 0 1 cbr 210 ------- 1 0.0 1.0 7 7
+ 10.0375 0 1 cbr 210 ------- 1 0.0 1.0 10 10
- 10.0375 0 1 cbr 210 ------- 1 0.0 1.0 10 10
r 10.04084 0 1 cbr 210 ------- 1 0.0 1.0 8 8
+ 10.04125 0 1 cbr 210 ------- 1 0.0 1.0 11 11
- 10.04125 0 1 cbr 210 ------- 1 0.0 1.0 11 11
r 10.04459 0 1 cbr 210 ------- 1 0.0 1.0 9 9
+ 10.045 0 1 cbr 210 ------- 1 0.0 1.0 12 12
- 10.045 0 1 cbr 210 ------- 1 0.0 1.0 12 12
r 10.04834 0 1 cbr 210 ------- 1 0.0 1.0 10 10
+ 10.04875 0 1 cbr 210 ------- 1 0.0 1.0 13 13
- 10.04875 0 1 cbr 210 ------- 1 0.0 1.0 13 13
r 10.05209 0 1 cbr 210 ------- 1 0.0 1.0 11 11
+ 10.0525 0 1 cbr 210 ------- 1 0.0 1.0 14 14
- 10.0525 0 1 cbr 210 ------- 1 0.0 1.0 14 14
r 10.05584 0 1 cbr 210 ------- 1 0.0 1.0 12 12
+ 10.05625 0 1 cbr 210 ------- 1 0.0 1.0 15 15
- 10.05625 0 1 cbr 210 ------- 1 0.0 1.0 15 15
r 10.05959 0 1 cbr 210 ------- 1 0.0 1.0 13 13
+ 10.06 0 1 cbr 210 ------- 1 0.0 1.0 16 16
- 10.06 0 1 cbr 210 ------- 1 0.0 1.0 16 16
r 10.06334 0 1 cbr 210 ------- 1 0.0 1.0 14 14
+ 10.06375 0 1 cbr 210 ------- 1 0.0 1.0 17 17
- 10.06375 0 1 cbr 210 ------- 1 0.0 1.0 17 17
r 10.06709 0 1 cbr 210 ------- 1 0.0 1.0 15 15
+ 10.0675 0 1 cbr 210 ------- 1 0.0 1.0 18 18
- 10.0675 0 1 cbr 210 ------- 1 0.0 1.0 18 18
r 10.07084 0 1 cbr 210 ------- 1 0.0 1.0 16 16
+ 10.07125 0 1 cbr 210 ------- 1 0.0 1.0 19 19
- 10.07125 0 1 cbr 210 ------- 1 0.0 1.0 19 19
r 10.07459 0 1 cbr 210 ------- 1 0.0 1.0 17 17
+ 10.075 0 1 cbr 210 ------- 1 0.0 1.0 20 20
- 10.075 0 1 cbr 210 ------- 1 0.0 1.0 20 20
r 10.07834 0 1 cbr 210 ------- 1 0.0 1.0 18 18
+ 10.07875 0 1 cbr 210 ------- 1 0.0 1.0 21 21
- 10.07875 0 1 cbr 210 ------- 1 0.0 1.0 21 21
r 10.08209 0 1 cbr 210 ------- 1 0.0 1.0 19 19
+ 10.0825 0 1 cbr 210 ------- 1 0.0 1.0 22 22
- 10.0825 0 1 cbr 210 ------- 1 0.0 1.0 22 22
r 10.08584 0 1 cbr 210 ------- 1 0.0 1.0 20 20
+ 10.08625 0 1 cbr 210 ------- 1 0.0 1.0 23 23
- 10.08625 0 1 cbr 210 ------- 1 0.0 1.0 23 23
r 10.08959 0 1 cbr 210 ------- 1 0.0 1.0 21 21
+ 10.09 0 1 cbr 210 ------- 1 0.0 1.0 24 24
- 10.09 0 1 cbr 210 ------- 1 0.0 1.0 24 24
r 10.09334 0 1 cbr 210 ------- 1 0.0 1.0 22 22
+ 10.09375 0 1 cbr 210 ------- 1 0.0 1.0 25 25
- 10.09375 0 1 cbr 210 ------- 1 0.0 1.0 25 25
r 10.09709 0 1 cbr 210 ------- 1 0.0 1.0 23 23
+ 10.0975 0 1 cbr 210 ------- 1 0.0 1.0 26 26
- 10.0975 0 1 cbr 210 ------- 1 0.0 1.0 26 26
r 10.10084 0 1 cbr 210 ------- 1 0.0 1.0 24 24
+ 10.10125 0 1 cbr 210 ------- 1 0.0 1.0 27 27
- 10.10125 0 1 cbr 210 ------- 1 0.0 1.0 27 27
r 10.10459 0 1 cbr 210 ------- 1 0.0 1.0 25 25
+ 10.105 0 1 cbr 210 ------- 1 0.0 1.0 28 28
- 10.105 0 1 cbr 210 ------- 1 0.0 1.0 28 28
r 10.10834 0 1 cbr 210 ------- 1 0.0 1.0 26 26
+ 10.10875 0 1 cbr 210 ------- 1 0.0 1.0 29 29
- 10.10875 0 1 cbr 210 ------- 1 0.0 1.0 29 29
r 10.11209 0 1 cbr 210 ------- 1 0.0 1.0 27 27
+ 10.1125 0 1 cbr 210 ------- 1 0.0 1.0 30 30
- 10.1125 0 1 cbr 210 ------- 1 0.0 1.0 30 30
r 10.11584 0 1 cbr 210 ------- 1 0.0 1.0 28 28
+ 10.11625 0 1 cbr 210 ------- 1 0.0 1.0 31 31
- 10.11625 0 1 cbr 210 ------- 1 0.0 1.0 31 31
r 10.11959 0 1 cbr 210 ------- 1 0.0 1.0 29 29
+ 10.12 0 1 cbr 210 ------- 1 0.0 1.0 32 32
- 10.12 0 1 cbr 210 ------- 1 0.0 1.0 32 32
r 10.12334 0 1 cbr 210 ------- 1 0.0 1.0 30 30
+ 10.12375 0 1 cbr 210 ------- 1 0.0 1.0 33 33
- 10.12375 0 1 cbr 210 ------- 1 0.0 1.0 33 33
r 10.12709 0 1 cbr 210 ------- 1 0.0 1.0 31 31
+ 10.1275 0 1 cbr 210 ------- 1 0.0 1.0 34 34
- 10.1275 0 1 cbr 210 ------- 1 0.0 1.0 34 34
r 10.13084 0 1 cbr 210 ------- 1 0.0 1.0 32 32
+ 10.13125 0 1 cbr 210 ------- 1 0.0 1.0 35 35
- 10.13125 0 1 cbr 210 ------- 1 0.0 1.0 35 35
r 10.13459 0 1 cbr 210 ------- 1 0.0 1.0 33 33
+ 10.135 0 1 cbr 210 ------- 1 0.0 1.0 36 36
- 10.135 0 1 cbr 210 ------- 1 0.0 1.0 36 36
r 10.13834 0 1 cbr 210 ------- 1 0.0 1.0 34 34
+ 10.13875 0 1 cbr 210 ------- 1 0.0 1.0 37 37
- 10.13875 0 1 cbr 210 ------- 1 0.0 1.0 37 37
r 10.14209 0 1 cbr 210 ------- 1 0.0 1.0 35 35
+ 10.1425 0 1 cbr 210 ------- 1 0.0 1.0 38 38
- 10.1425 0 1 cbr 210 ------- 1 0.0 1.0 38 38
r 10.14584 0 1 cbr 210 ------- 1 0.0 1.0 36 36
+ 10.14625 0 1 cbr 210 ------- 1 0.0 1.0 39 39
- 10.14625 0 1 cbr 210 ------- 1 0.0 1.0 39 39
r 10.14959 0 1 cbr 210 ------- 1 0.0 1.0 37 37
+ 10.15 0 1 cbr 210 ------- 1 0.0 1.0 40 40
- 10.15 0 1 cbr 210 ------- 1 0.0 1.0 40 40
r 10.15334 0 1 cbr 210 ------- 1 0.0 1.0 38 38
+ 10.15375 0 1 cbr 210 ------- 1 0.0 1.0 41 41
- 10.15375 0 1 cbr 210 ------- 1 0.0 1.0 41 41
r 10.15709 0 1 cbr 210 ------- 1 0.0 1.0 39 39
+ 10.1575 0 1 cbr 210 ------- 1 0.0 1.0 42 42
- 10.1575 0 1 cbr 210 ------- 1 0.0 1.0 42 42
r 10.16084 0 1 cbr 210 ------- 1 0.0 1.0 40 40
+ 10.16125 0 1 cbr 210 ------- 1 0.0 1.0 43 43
- 10.16125 0 1 cbr 210 ------- 1 0.0 1.0 43 43
r 10.16459 0 1 cbr 210 ------- 1 0.0 1.0 41 41
+ 10.165 0 1 cbr 210 ------- 1 0.0 1.0 44 44
- 10.165 0 1 cbr 210 ------- 1 0.0 1.0 44 44
r 10.16834 0 1 cbr 210 ------- 1 0.0 1.0 42 42
+ 10.16875 0 1 cbr 210 ------- 1 0.0 1.0 45 45
- 10.16875 0 1 cbr 210 ------- 1 0.0 1.0 45 45
r 10.17209 0 1 cbr 210 ------- 1 0.0 1.0 43 43
+ 10.1725 0 1 cbr 210 ------- 1 0.0 1.0 46 46
- 10.1725 0 1 cbr 210 ------- 1 0.0 1.0 46 46
r 10.17584 0 1 cbr 210 ------- 1 0.0 1.0 44 44
+ 10.17625 0 1 cbr 210 ------- 1 0.0 1.0 47 47
- 10.17625 0 1 cbr 210 ------- 1 0.0 1.0 47 47
r 10.17959 0 1 cbr 210 ------- 1 0.0 1.0 45 45
+ 10.18 0 1 cbr 210 ------- 1 0.0 1.0 48 48
- 10.18 0 1 cbr 210 ------- 1 0.0 1.0 48 48
r 10.18334 0 1 cbr 210 ------- 1 0.0 1.0 46 46
+ 10.18375 0 1 cbr 210 ------- 1 0.0 1.0 49 49
- 10.18375 0 1 cbr 210 ------- 1 0.0 1.0 49 49
r 10.18709 0 1 cbr 210 ------- 1 0.0 1.0 47 47
+ 10.1875 0 1 cbr 210 ------- 1 0.0 1.0 50 50
- 10.1875 0 1 cbr 210 ------- 1 0.0 1.0 50 50
r 10.19084 0 1 cbr 210 ------- 1 0.0 1.0 48 48
+ 10.19125 0 1 cbr 210 ------- 1 0.0 1.0 51 51
- 10.19125 0 1 cbr 210 ------- 1 0.0 1.0 51 51
r 10.19459 0 1 cbr 210 ------- 1 0.0 1.0 49 49
+ 10.195 0 1 cbr 210 ------- 1 0.0 1.0 52 52
- 10.195 0 1 cbr 210 ------- 1 0.0 1.0 52 52
r 10.19834 0 1 cbr 210 ------- 1 0.0 1.0 50 50
+ 10.19875 0 1 cbr 210 ------- 1 0.0 1.0 53 53
- 10.19875 0 1 cbr 210 ------- 1 0.0 1.0 53 53
r 10.20209 0 1 cbr 210 ------- 1 0.0 1.0 51 51
+ 10.2025 0 1 cbr 210 ------- 1 0.0 1.0 54 54
- 10.2025 0 1 cbr 210 ------- 1 0.0 1.0 54 54
r 10.20584 0 1 cbr 210 ------- 1 0.0 1.0 52 52
+ 10.20625 0 1 cbr 210 ------- 1 0.0 1.0 55 55
- 10.20625 0 1 cbr 210 ------- 1 0.0 1.0 55 55
r 10.20959 0 1 cbr 210 ------- 1 0.0 1.0 53 53
+ 10.21 0 1 cbr 210 ------- 1 0.0 1.0 56 56
- 10.21 0 1 cbr 210 ------- 1 0.0 1.0 56 56
r 10.21334 0 1 cbr 210 ------- 1 0.0 1.0 54 54
+ 10.21375 0 1 cbr 210 ------- 1 0.0 1.0 57 57
- 10.21375 0 1 cbr 210 ------- 1 0.0 1.0 57 57
r 10.21709 0 1 cbr 210 ------- 1 0.0 1.0 55 55
+ 10.2175 0 1 cbr 210 ------- 1 0.0 1.0 58 58
- 10.2175 0 1 cbr 210 ------- 1 0.0 1.0 58 58
r 10.22084 0 1 cbr 210 ------- 1 0.0 1.0 56 56
+ 10.22125 0 1 cbr 210 ------- 1 0.0 1.0 59 59
- 10.22125 0 1 cbr 210 ------- 1 0.0 1.0 59 59
r 10.22459 0 1 cbr 210 ------- 1 0.0 1.0 57 57
+ 10.225 0 1 cbr 210 ------- 1 0.0 1.0 60 60
- 10.225 0 1 cbr 210 ------- 1 0.0 1.0 60 60
r 10.22834 0 1 cbr 210 ------- 1 0.0 1.0 58 58
+ 10.22875 0 1 cbr 210 ------- 1 0.0 1.0 61 61
- 10.22875 0 1 cbr 210 ------- 1 0.0 1.0 61 61
r 10.23209 0 1 cbr 210 ------- 1 0.0 1.0 59 59
+ 10.2325 0 1 cbr 210 ------- 1 0.0 1.0 62 62
- 10.2325 0 1 cbr 210 ------- 1 0.0 1.0 62 62
r 10.23584 0 1 cbr 210 ------- 1 0.0 1.0 60 60
+ 10.23625 0 1 cbr 210 ------- 1 0.0 1.0 63 63
- 10.23625 0 1 cbr 210 ------- 1 0.0 1.0 63 63
r 10.23959 0 1 cbr 210 ------- 1 0.0 1.0 61 61
+ 10.24 0 1 cbr 210 ------- 1 0.0 1.0 64 64
- 10.24 0 1 cbr 210 ------- 1 0.0 1.0 64 64
r 10.24334 0 1 cbr 210 ------- 1 0.0 1.0 62 62
+ 10.24375 0 1 cbr 210 ------- 1 0.0 1.0 65 65
- 10.24375 0 1 cbr 210 ------- 1 0.0 1.0 65 65
r 10.24709 0 1 cbr 210 ------- 1 0.0 1.0 63 63
+ 10.2475 0 1 cbr 210 ------- 1 0.0 1.0 66 66
- 10.2475 0 1 cbr 210 ------- 1 0.0 1.0 66 66
r 10.25084 0 1 cbr 210 ------- 1 0.0 1.0 64 64
+ 10.25125 0 1 cbr 210 ------- 1 0.0 1.0 67 67
- 10.25125 0 1 cbr 210 ------- 1 0.0 1.0 67 67
r 10.25459 0 1 cbr 210 ------- 1 0.0 1.0 65 65
+ 10.255 0 1 cbr 210 ------- 1 0.0 1.0 68 68
- 10.255 0 1 cbr 210 ------- 1 0.0 1.0 68 68
r 10.25834 0 1 cbr 210 ------- 1 0.0 1.0 66 66
+ 10.25875 0 1 cbr 210 ------- 1 0.0 1.0 69 69
- 10.25875 0 1 cbr 210 ------- 1 0.0 1.0 69 69
r 10.26209 0 1 cbr 210 ------- 1 0.0 1.0 67 67
+ 10.2625 0 1 cbr 210 ------- 1 0.0 1.0 70 70
- 10.2625 0 1 cbr 210 ------- 1 0.0 1.0 70 70
r 10.26584 0 1 cbr 210 ------- 1 0.0 1.0 68 68
+ 10.26625 0 1 cbr 210 ------- 1 0.0 1.0 71 71
- 10.26625 0 1 cbr 210 ------- 1 0.0 1.0 71 71
r 10.26959 0 1 cbr 210 ------- 1 0.0 1.0 69 69
+ 10.27 0 1 cbr 210 ------- 1 0.0 1.0 72 72
- 10.27 0 1 cbr 210 ------- 1 0.0 1.0 72 72
r 10.27334 0 1 cbr 210 ------- 1 0.0 1.0 70 70
+ 10.27375 0 1 cbr 210 ------- 1 0.0 1.0 73 73
- 10.27375 0 1 cbr 210 ------- 1 0.0 1.0 73 73
r 10.27709 0 1 cbr 210 ------- 1 0.0 1.0 71 71
+ 10.2775 0 1 cbr 210 ------- 1 0.0 1.0 74 74
- 10.2775 0 1 cbr 210 ------- 1 0.0 1.0 74 74
r 10.28084 0 1 cbr 210 ------- 1 0.0 1.0 72 72
+ 10.28125 0 1 cbr 210 ------- 1 0.0 1.0 75 75
- 10.28125 0 1 cbr 210 ------- 1 0.0 1.0 75 75
r 10.28459 0 1 cbr 210 ------- 1 0.0 1.0 73 73
+ 10.285 0 1 cbr 210 ------- 1 0.0 1.0 76 76
- 10.285 0 1 cbr 210 ------- 1 0.0 1.0 76 76
r 10.28834 0 1 cbr 210 ------- 1 0.0 1.0 74 74
+ 10.28875 0 1 cbr 210 ------- 1 0.0 1.0 77 77
- 10.28875 0 1 cbr 210 ------- 1 0.0 1.0 77 77
r 10.29209 0 1 cbr 210 ------- 1 0.0 1.0 75 75
+ 10.2925 0 1 cbr 210 ------- 1 0.0 1.0 78 78
- 10.2925 0 1 cbr 210 ------- 1 0.0 1.0 78 78
r 10.29584 0 1 cbr 210 ------- 1 0.0 1.0 76 76
+ 10.29625 0 1 cbr 210 ------- 1 0.0 1.0 79 79
- 10.29625 0 1 cbr 210 ------- 1 0.0 1.0 79 79
r 10.29959 0 1 cbr 210 ------- 1 0.0 1.0 77 77
+ 10.3 0 1 cbr 210 ------- 1 0.0 1.0 80 80
- 10.3 0 1 cbr 210 ------- 1 0.0 1.0 80 80
r 10.30334 0 1 cbr 210 ------- 1 0.0 1.0 78 78
+ 10.30375 0 1 cbr 210 ------- 1 0.0 1.0 81 81
- 10.30375 0 1 cbr 210 ------- 1 0.0 1.0 81 81
r 10.30709 0 1 cbr 210 ------- 1 0.0 1.0 79 79
+ 10.3075 0 1 cbr 210 ------- 1 0.0 1.0 82 82
- 10.3075 0 1 cbr 210 ------- 1 0.0 1.0 82 82
r 10.31084 0 1 cbr 210 ------- 1 0.0 1.0 80 80
+ 10.31125 0 1 cbr 210 ------- 1 0.0 1.0 83 83
- 10.31125 0 1 cbr 210 ------- 1 0.0 1.0 83 83
r 10.31459 0 1 cbr 210 ------- 1 0.0 1.0 81 81
+ 10.315 0 1 cbr 210 ------- 1 0.0 1.0 84 84
- 10.315 0 1 cbr 210 ------- 1 0.0 1.0 84 84
r 10.31834 0 1 cbr 210 ------- 1 0.0 1.0 82 82
+ 10.31875 0 1 cbr 210 ------- 1 0.0 1.0 85 85
- 10.31875 0 1 cbr 210 ------- 1 0.0 1.0 85 85
r 10.32209 0 1 cbr 210 ------- 1 0.0 1.0 83 83
+ 10.3225 0 1 cbr 210 ------- 1 0.0 1.0 86 86
- 10.3225 0 1 cbr 210 ------- 1 0.0 1.0 86 86
r 10.32584 0 1 cbr 210 ------- 1 0.0 1.0 84 84
+ 10.32625 0 1 cbr 210 ------- 1 0.0 1.0 87 87
- 10.32625 0 1 cbr 210 ------- 1 0.0 1.0 87 87
r 10.32959 0 1 cbr 210 ------- 1 0.0 1.0 85 85
+ 10.33 0 1 cbr 210 ------- 1 0.0 1.0 88 88
- 10.33 0 1 cbr 210 ------- 1 0.0 1.0 88 88
r 10.33334 0 1 cbr 210 ------- 1 0.0 1.0 86 86
+ 10.33375 0 1 cbr 210 ------- 1 0.0 1.0 89 89
- 10.33375 0 1 cbr 210 ------- 1 0.0 1.0 89 89
r 10.33709 0 1 cbr 210 ------- 1 0.0 1.0 87 87
+ 10.3375 0 1 cbr 210 ------- 1 0.0 1.0 90 90
- 10.3375 0 1 cbr 210 ------- 1 0.0 1.0 90 90
r 10.34084 0 1 cbr 210 ------- 1 0.0 1.0 88 88
+ 10.34125 0 1 cbr 210 ------- 1 0.0 1.0 91 91
- 10.34125 0 1 cbr 210 ------- 1 0.0 1.0 91 91
r 10.34459 0 1 cbr 210 ------- 1 0.0 1.0 89 89
+ 10.345 0 1 cbr 210 ------- 1 0.0 1.0 92 92
- 10.345 0 1 cbr 210 ------- 1 0.0 1.0 92 92
r 10.34834 0 1 cbr 210 ------- 1 0.0 1.0 90 90
+ 10.34875 0 1 cbr 210 ------- 1 0.0 1.0 93 93
- 10.34875 0 1 cbr 210 ------- 1 0.0 1.0 93 93
r 10.35209 0 1 cbr 210 ------- 1 0.0 1.0 91 91
+ 10.3525 0 1 cbr 210 ------- 1 0.0 1.0 94 94
- 10.3525 0 1 cbr 210 ------- 1 0.0 1.0 94 94
r 10.35584 0 1 cbr 210 ------- 1 0.0 1.0 92 92
+ 10.35625 0 1 cbr 210 ------- 1 0.0 1.0 95 95
- 10.35625 0 1 cbr 210 ------- 1 0.0 1.0 95 95
r 10.35959 0 1 cbr 210 ------- 1 0.0 1.0 93 93
+ 10.36 0 1 cbr 210 ------- 1 0.0 1.0 96 96
- 10.36 0 1 cbr 210 ------- 1 0.0 1.0 96 96
r 10.36334 0 1 cbr 210 ------- 1 0.0 1.0 94 94
+ 10.36375 0 1 cbr 210 ------- 1 0.0 1.0 97 97
- 10.36375 0 1 cbr 210 ------- 1 0.0 1.0 97 97
r 10.36709 0 1 cbr 210 ------- 1 0.0 1.0 95 95
+ 10.3675 0 1 cbr 210 ------- 1 0.0 1.0 98 98
- 10.3675 0 1 cbr 210 ------- 1 0.0 1.0 98 98
r 10.37084 0 1 cbr 210 ------- 1 0.0 1.0 96 96
+ 10.37125 0 1 cbr 210 ------- 1 0.0 1.0 99 99
- 10.37125 0 1 cbr 210 ------- 1 0.0 1.0 99 99
r 10.37459 0 1 cbr 210 ------- 1 0.0 1.0 97 97
+ 10.375 0 1 cbr 210 ------- 1 0.0 1.0 100 100
- 10.375 0 1 cbr 210 ------- 1 0.0 1.0 100 100
r 10.37834 0 1 cbr 210 ------- 1 0.0 1.0 98 98
+ 10.37875 0 1 cbr 210 ------- 1 0.0 1.0 101 101
- 10.37875 0 1 cbr 210 ------- 1 0.0 1.0 101 101
r 10.38209 0 1 cbr 210 ------- 1 0.0 1.0 99 99
+ 10.3825 0 1 cbr 210 ------- 1 0.0 1.0 102 102
- 10.3825 0 1 cbr 210 ------- 1 0.0 1.0 102 102
r 10.38584 0 1 cbr 210 ------- 1 0.0 1.0 100 100
+ 10.38625 0 1 cbr 210 ------- 1 0.0 1.0 103 103
- 10.38625 0 1 cbr 210 ------- 1 0.0 1.0 103 103
r 10.38959 0 1 cbr 210 ------- 1 0.0 1.0 101 101
+ 10.39 0 1 cbr 210 ------- 1 0.0 1.0 104 104
- 10.39 0 1 cbr 210 ------- 1 0.0 1.0 104 104
r 10.39334 0 1 cbr 210 ------- 1 0.0 1.0 102 102
+ 10.39375 0 1 cbr 210 ------- 1 0.0 1.0 105 105
- 10.39375 0 1 cbr 210 ------- 1 0.0 1.0 105 105
r 10.39709 0 1 cbr 210 ------- 1 0.0 1.0 103 103
+ 10.3975 0 1 cbr 210 ------- 1 0.0 1.0 106 106
- 10.3975 0 1 cbr 210 ------- 1 0.0 1.0 106 106
r 10.40084 0 1 cbr 210 ------- 1 0.0 1.0 104 104
+ 10.40125 0 1 cbr 210 ------- 1 0.0 1.0 107 107
- 10.40125 0 1 cbr 210 ------- 1 0.0 1.0 107 107
r 10.40459 0 1 cbr 210 ------- 1 0.0 1.0 105 105
+ 10.405 0 1 cbr 210 ------- 1 0.0 1.0 108 108
- 10.405 0 1 cbr 210 ------- 1 0.0 1.0 108 108
r 10.40834 0 1 cbr 210 ------- 1 0.0 1.0 106 106
+ 10.40875 0 1 cbr 210 ------- 1 0.0 1.0 109 109
- 10.40875 0 1 cbr 210 ------- 1 0.0 1.0 109 109
r 10.41209 0 1 cbr 210 ------- 1 0.0 1.0 107 107
+ 10.4125 0 1 cbr 210 ------- 1 0.0 1.0 110 110
- 10.4125 0 1 cbr 210 ------- 1 0.0 1.0 110 110
r 10.41584 0 1 cbr 210 ------- 1 0.0 1.0 108 108
+ 10.41625 0 1 cbr 210 ------- 1 0.0 1.0 111 111
- 10.41625 0 1 cbr 210 ------- 1 0.0 1.0 111 111
r 10.41959 0 1 cbr 210 ------- 1 0.0 1.0 109 109
+ 10.42 0 1 cbr 210 ------- 1 0.0 1.0 112 112
- 10.42 0 1 cbr 210 ------- 1 0.0 1.0 112 112
r 10.42334 0 1 cbr 210 ------- 1 0.0 1.0 110 110
+ 10.42375 0 1 cbr 210 ------- 1 0.0 1.0 113 113
- 10.42375 0 1 cbr 210 ------- 1 0.0 1.0 113 113
r 10.42709 0 1 cbr 210 ------- 1 0.0 1.0 111 111
+ 10.4275 0 1 cbr 210 ------- 1 0.0 1.0 114 114
- 10.4275 0 1 cbr 210 ------- 1 0.0 1.0 114 114
r 10.43084 0 1 cbr 210 ------- 1 0.0 1.0 112 112
+ 10.43125 0 1 cbr 210 ------- 1 0.0 1.0 115 115
- 10.43125 0 1 cbr 210 ------- 1 0.0 1.0 115 115
r 10.43459 0 1 cbr 210 ------- 1 0.0 1.0 113 113
+ 10.435 0 1 cbr 210 ------- 1 0.0 1.0 116 116
- 10.435 0 1 cbr 210 ------- 1 0.0 1.0 116 116
r 10.43834 0 1 cbr 210 ------- 1 0.0 1.0 114 114
+ 10.43875 0 1 cbr 210 ------- 1 0.0 1.0 117 117
- 10.43875 0 1 cbr 210 ------- 1 0.0 1.0 117 117
r 10.44209 0 1 cbr 210 ------- 1 0.0 1.0 115 115
+ 10.4425 0 1 cbr 210 ------- 1 0.0 1.0 118 118
- 10.4425 0 1 cbr 210 ------- 1 0.0 1.0 118 118
r 10.44584 0 1 cbr 210 ------- 1 0.0 1.0 116 116
+ 10.44625 0 1 cbr 210 ------- 1 0.0 1.0 119 119
- 10.44625 0 1 cbr 210 ------- 1 0.0 1.0 119 119
r 10.44959 0 1 cbr 210 ------- 1 0.0 1.0 117 117
+ 10.45 0 1 cbr 210 ------- 1 0.0 1.0 120 120
- 10.45 0 1 cbr 210 ------- 1 0.0 1.0 120 120
r 10.45334 0 1 cbr 210 ------- 1 0.0 1.0 118 118
+ 10.45375 0 1 cbr 210 ------- 1 0.0 1.0 121 121
- 10.45375 0 1 cbr 210 ------- 1 0.0 1.0 121 121
r 10.45709 0 1 cbr 210 ------- 1 0.0 1.0 119 119
+ 10.4575 0 1 cbr 210 ------- 1 0.0 1.0 122 122
- 10.4575 0 1 cbr 210 ------- 1 0.0 1.0 122 122
r 10.46084 0 1 cbr 210 ------- 1 0.0 1.0 120 120
+ 10.46125 0 1 cbr 210 ------- 1 0.0 1.0 123 123
- 10.46125 0 1 cbr 210 ------- 1 0.0 1.0 123 123
r 10.46459 0 1 cbr 210 ------- 1 0.0 1.0 121 121
+ 10.465 0 1 cbr 210 ------- 1 0.0 1.0 124 124
- 10.465 0 1 cbr 210 ------- 1 0.0 1.0 124 124
r 10.46834 0 1 cbr 210 ------- 1 0.0 1.0 122 122
+ 10.46875 0 1 cbr 210 ------- 1 0.0 1.0 125 125
- 10.46875 0 1 cbr 210 ------- 1 0.0 1.0 125 125
r 10.47209 0 1 cbr 210 ------- 1 0.0 1.0 123 123
+ 10.4725 0 1 cbr 210 ------- 1 0.0 1.0 126 126
- 10.4725 0 1 cbr 210 ------- 1 0.0 1.0 126 126
r 10.47584 0 1 cbr 210 ------- 1 0.0 1.0 124 124
+ 10.47625 0 1 cbr 210 ------- 1 0.0 1.0 127 127
- 10.47625 0 1 cbr 210 ------- 1 0.0 1.0 127 127
r 10.47959 0 1 cbr 210 ------- 1 0.0 1.0 125 125
+ 10.48 0 1 cbr 210 ------- 1 0.0 1.0 128 128
- 10.48 0 1 cbr 210 ------- 1 0.0 1.0 128 128
r 10.48334 0 1 cbr 210 ------- 1 0.0 1.0 126 126
+ 10.48375 0 1 cbr 210 ------- 1 0.0 1.0 129 129
- 10.48375 0 1 cbr 210 ------- 1 0.0 1.0 129 129
r 10.48709 0 1 cbr 210 ------- 1 0.0 1.0 127 127
+ 10.4875 0 1 cbr 210 ------- 1 0.0 1.0 130 130
- 10.4875 0 1 cbr 210 ------- 1 0.0 1.0 130 130
r 10.49084 0 1 cbr 210 ------- 1 0.0 1.0 128 128
+ 10.49125 0 1 cbr 210 ------- 1 0.0 1.0 131 131
- 10.49125 0 1 cbr 210 ------- 1 0.0 1.0 131 131
r 10.49459 0 1 cbr 210 ------- 1 0.0 1.0 129 129
+ 10.495 0 1 cbr 210 ------- 1 0.0 1.0 132 132
- 10.495 0 1 cbr 210 ------- 1 0.0 1.0 132 132
r 10.49834 0 1 cbr 210 ------- 1 0.0 1.0 130 130
+ 10.49875 0 1 cbr 210 ------- 1 0.0 1.0 133 133
- 10.49875 0 1 cbr 210 ------- 1 0.0 1.0 133 133
r 10.50209 0 1 cbr 210 ------- 1 0.0 1.0 131 131
+ 10.5025 0 1 cbr 210 ------- 1 0.0 1.0 134 134
- 10.5025 0 1 cbr 210 ------- 1 0.0 1.0 134 134
r 10.50584 0 1 cbr 210 ------- 1 0.0 1.0 132 132
+ 10.50625 0 1 cbr 210 ------- 1 0.0 1.0 135 135
- 10.50625 0 1 cbr 210 ------- 1 0.0 1.0 135 135
r 10.50959 0 1 cbr 210 ------- 1 0.0 1.0 133 133
+ 10.51 0 1 cbr 210 ------- 1 0.0 1.0 136 136
- 10.51 0 1 cbr 210 ------- 1 0.0 1.0 136 136
r 10.51334 0 1 cbr 210 ------- 1 0.0 1.0 134 134
+ 10.51375 0 1 cbr 210 ------- 1 0.0 1.0 137 137
- 10.51375 0 1 cbr 210 ------- 1 0.0 1.0 137 137
r 10.51709 0 1 cbr 210 ------- 1 0.0 1.0 135 135
+ 10.5175 0 1 cbr 210 ------- 1 0.0 1.0 138 138
- 10.5175 0 1 cbr 210 ------- 1 0.0 1.0 138 138
r 10.52084 0 1 cbr 210 ------- 1 0.0 1.0 136 136
+ 10.52125 0 1 cbr 210 ------- 1 0.0 1.0 139 139
- 10.52125 0 1 cbr 210 ------- 1 0.0 1.0 139 139
r 10.52459 0 1 cbr 210 ------- 1 0.0 1.0 137 137
+ 10.525 0 1 cbr 210 ------- 1 0.0 1.0 140 140
- 10.525 0 1 cbr 210 ------- 1 0.0 1.0 140 140
r 10.52834 0 1 cbr 210 ------- 1 0.0 1.0 138 138
+ 10.52875 0 1 cbr 210 ------- 1 0.0 1.0 141 141
- 10.52875 0 1 cbr 210 ------- 1 0.0 1.0 141 141
r 10.53209 0 1 cbr 210 ------- 1 0.0 1.0 139 139
+ 10.5325 0 1 cbr 210 ------- 1 0.0 1.0 142 142
- 10.5325 0 1 cbr 210 ------- 1 0.0 1.0 142 142
r 10.53584 0 1 cbr 210 ------- 1 0.0 1.0 140 140
+ 10.53625 0 1 cbr 210 ------- 1 0.0 1.0 143 143
- 10.53625 0 1 cbr 210 ------- 1 0.0 1.0 143 143
r 10.53959 0 1 cbr 210 ------- 1 0.0 1.0 141 141
+ 10.54 0 1 cbr 210 ------- 1 0.0 1.0 144 144
- 10.54 0 1 cbr 210 ------- 1 0.0 1.0 144 144
r 10.54334 0 1 cbr 210 ------- 1 0.0 1.0 142 142
+ 10.54375 0 1 cbr 210 ------- 1 0.0 1.0 145 145
- 10.54375 0 1 cbr 210 ------- 1 0.0 1.0 145 145
r 10.54709 0 1 cbr 210 ------- 1 0.0 1.0 143 143
+ 10.5475 0 1 cbr 210 ------- 1 0.0 1.0 146 146
- 10.5475 0 1 cbr 210 ------- 1 0.0 1.0 146 146
r 10.55084 0 1 cbr 210 ------- 1 0.0 1.0 144 144
+ 10.55125 0 1 cbr 210 ------- 1 0.0 1.0 147 147
- 10.55125 0 1 cbr 210 ------- 1 0.0 1.0 147 147
r 10.55459 0 1 cbr 210 ------- 1 0.0 1.0 145 145
+ 10.555 0 1 cbr 210 ------- 1 0.0 1.0 148 148
- 10.555 0 1 cbr 210 ------- 1 0.0 1.0 148 148
r 10.55834 0 1 cbr 210 ------- 1 0.0 1.0 146 146
+ 10.55875 0 1 cbr 210 ------- 1 0.0 1.0 149 149
- 10.55875 0 1 cbr 210 ------- 1 0.0 1.0 149 149
r 10.56209 0 1 cbr 210 ------- 1 0.0 1.0 147 147
+ 10.5625 0 1 cbr 210 ------- 1 0.0 1.0 150 150
- 10.5625 0 1 cbr 210 ------- 1 0.0 1.0 150 150
r 10.56584 0 1 cbr 210 ------- 1 0.0 1.0 148 148
+ 10.56625 0 1 cbr 210 ------- 1 0.0 1.0 151 151
- 10.56625 0 1 cbr 210 ------- 1 0.0 1.0 151 151
r 10.56959 0 1 cbr 210 ------- 1 0.0 1.0 149 149
+ 10.57 0 1 cbr 210 ------- 1 0.0 1.0 152 152
- 10.57 0 1 cbr 210 ------- 1 0.0 1.0 152 152
r 10.57334 0 1 cbr 210 ------- 1 0.0 1.0 150 150
+ 10.57375 0 1 cbr 210 ------- 1 0.0 1.0 153 153
- 10.57375 0 1 cbr 210 ------- 1 0.0 1.0 153 153
r 10.57709 0 1 cbr 210 ------- 1 0.0 1.0 151 151
+ 10.5775 0 1 cbr 210 ------- 1 0.0 1.0 154 154
- 10.5775 0 1 cbr 210 ------- 1 0.0 1.0 154 154
r 10.58084 0 1 cbr 210 ------- 1 0.0 1.0 152 152
+ 10.58125 0 1 cbr 210 ------- 1 0.0 1.0 155 155
- 10.58125 0 1 cbr 210 ------- 1 0.0 1.0 155 155
r 10.58459 0 1 cbr 210 ------- 1 0.0 1.0 153 153
+ 10.585 0 1 cbr 210 ------- 1 0.0 1.0 156 156
- 10.585 0 1 cbr 210 ------- 1 0.0 1.0 156 156
r 10.58834 0 1 cbr 210 ------- 1 0.0 1.0 154 154
+ 10.58875 0 1 cbr 210 ------- 1 0.0 1.0 157 157
- 10.58875 0 1 cbr 210 ------- 1 0.0 1.0 157 157
r 10.59209 0 1 cbr 210 ------- 1 0.0 1.0 155 155
+ 10.5925 0 1 cbr 210 ------- 1 0.0 1.0 158 158
- 10.5925 0 1 cbr 210 ------- 1 0.0 1.0 158 158
r 10.59584 0 1 cbr 210 ------- 1 0.0 1.0 156 156
+ 10.59625 0 1 cbr 210 ------- 1 0.0 1.0 159 159
- 10.59625 0 1 cbr 210 ------- 1 0.0 1.0 159 159
r 10.59959 0 1 cbr 210 ------- 1 0.0 1.0 157 157
+ 10.6 0 1 cbr 210 ------- 1 0.0 1.0 160 160
- 10.6 0 1 cbr 210 ------- 1 0.0 1.0 160 160
r 10.60334 0 1 cbr 210 ------- 1 0.0 1.0 158 158
+ 10.60375 0 1 cbr 210 ------- 1 0.0 1.0 161 161
- 10.60375 0 1 cbr 210 ------- 1 0.0 1.0 161 161
r 10.60709 0 1 cbr 210 ------- 1 0.0 1.0 159 159
+ 10.6075 0 1 cbr 210 ------- 1 0.0 1.0 162 162
- 10.6075 0 1 cbr 210 ------- 1 0.0 1.0 162 162
r 10.61084 0 1 cbr 210 ------- 1 0.0 1.0 160 160
+ 10.61125 0 1 cbr 210 ------- 1 0.0 1.0 163 163
- 10.61125 0 1 cbr 210 ------- 1 0.0 1.0 163 163
r 10.61459 0 1 cbr 210 ------- 1 0.0 1.0 161 161
+ 10.615 0 1 cbr 210 ------- 1 0.0 1.0 164 164
- 10.615 0 1 cbr 210 ------- 1 0.0 1.0 164 164
r 10.61834 0 1 cbr 210 ------- 1 0.0 1.0 162 162
+ 10.61875 0 1 cbr 210 ------- 1 0.0 1.0 165 165
- 10.61875 0 1 cbr 210 ------- 1 0.0 1.0 165 165
r 10.62209 0 1 cbr 210 ------- 1 0.0 1.0 163 163
+ 10.6225 0 1 cbr 210 ------- 1 0.0 1.0 166 166
- 10.6225 0 1 cbr 210 ------- 1 0.0 1.0 166 166
r 10.62584 0 1 cbr 210 ------- 1 0.0 1.0 164 164
+ 10.62625 0 1 cbr 210 ------- 1 0.0 1.0 167 167
- 10.62625 0 1 cbr 210 ------- 1 0.0 1.0 167 167
r 10.62959 0 1 cbr 210 ------- 1 0.0 1.0 165 165
+ 10.63 0 1 cbr 210 ------- 1 0.0 1.0 168 168
- 10.63 0 1 cbr 210 ------- 1 0.0 1.0 168 168
r 10.63334 0 1 cbr 210 ------- 1 0.0 1.0 166 166
+ 10.63375 0 1 cbr 210 ------- 1 0.0 1.0 169 169
- 10.63375 0 1 cbr 210 ------- 1 0.0 1.0 169 169
r 10.63709 0 1 cbr 210 ------- 1 0.0 1.0 167 167
+ 10.6375 0 1 cbr 210 ------- 1 0.0 1.0 170 170
- 10.6375 0 1 cbr 210 ------- 1 0.0 1.0 170 170
r 10.64084 0 1 cbr 210 ------- 1 0.0 1.0 168 168
+ 10.64125 0 1 cbr 210 ------- 1 0.0 1.0 171 171
- 10.64125 0 1 cbr 210 ------- 1 0.0 1.0 171 171
r 10.64459 0 1 cbr 210 ------- 1 0.0 1.0 169 169
+ 10.645 0 1 cbr 210 ------- 1 0.0 1.0 172 172
- 10.645 0 1 cbr 210 ------- 1 0.0 1.0 172 172
r 10.64834 0 1 cbr 210 ------- 1 0.0 1.0 170 170
+ 10.64875 0 1 cbr 210 ------- 1 0.0 1.0 173 173
- 10.64875 0 1 cbr 210 ------- 1 0.0 1.0 173 173
r 10.65209 0 1 cbr 210 ------- 1 0.0 1.0 171 171
+ 10.6525 0 1 cbr 210 ------- 1 0.0 1.0 174 174
- 10.6525 0 1 cbr 210 ------- 1 0.0 1.0 174 174
r 10.65584 0 1 cbr 210 ------- 1 0.0 1.0 172 172
+ 10.65625 0 1 cbr 210 ------- 1 0.0 1.0 175 175
- 10.65625 0 1 cbr 210 ------- 1 0.0 1.0 175 175
r 10.65959 0 1 cbr 210 ------- 1 0.0 1.0 173 173
+ 10.66 0 1 cbr 210 ------- 1 0.0 1.0 176 176
- 10.66 0 1 cbr 210 ------- 1 0.0 1.0 176 176
r 10.66334 0 1 cbr 210 ------- 1 0.0 1.0 174 174
+ 10.66375 0 1 cbr 210 ------- 1 0.0 1.0 177 177
- 10.66375 0 1 cbr 210 ------- 1 0.0 1.0 177 177
r 10.66709 0 1 cbr 210 ------- 1 0.0 1.0 175 175
+ 10.6675 0 1 cbr 210 ------- 1 0.0 1.0 178 178
- 10.6675 0 1 cbr 210 ------- 1 0.0 1.0 178 178
r 10.67084 0 1 cbr 210 ------- 1 0.0 1.0 176 176
+ 10.67125 0 1 cbr 210 ------- 1 0.0 1.0 179 179
- 10.67125 0 1 cbr 210 ------- 1 0.0 1.0 179 179
r 10.67459 0 1 cbr 210 ------- 1 0.0 1.0 177 177
+ 10.675 0 1 cbr 210 ------- 1 0.0 1.0 180 180
- 10.675 0 1 cbr 210 ------- 1 0.0 1.0 180 180
r 10.67834 0 1 cbr 210 ------- 1 0.0 1.0 178 178
+ 10.67875 0 1 cbr 210 ------- 1 0.0 1.0 181 181
- 10.67875 0 1 cbr 210 ------- 1 0.0 1.0 181 181
r 10.68209 0 1 cbr 210 ------- 1 0.0 1.0 179 179
+ 10.6825 0 1 cbr 210 ------- 1 0.0 1.0 182 182
- 10.6825 0 1 cbr 210 ------- 1 0.0 1.0 182 182
r 10.68584 0 1 cbr 210 ------- 1 0.0 1.0 180 180
+ 10.68625 0 1 cbr 210 ------- 1 0.0 1.0 183 183
- 10.68625 0 1 cbr 210 ------- 1 0.0 1.0 183 183
r 10.68959 0 1 cbr 210 ------- 1 0.0 1.0 181 181
+ 10.69 0 1 cbr 210 ------- 1 0.0 1.0 184 184
- 10.69 0 1 cbr 210 ------- 1 0.0 1.0 184 184
r 10.69334 0 1 cbr 210 ------- 1 0.0 1.0 182 182
+ 10.69375 0 1 cbr 210 ------- 1 0.0 1.0 185 185
- 10.69375 0 1 cbr 210 ------- 1 0.0 1.0 185 185
r 10.69709 0 1 cbr 210 ------- 1 0.0 1.0 183 183
+ 10.6975 0 1 cbr 210 ------- 1 0.0 1.0 186 186
- 10.6975 0 1 cbr 210 ------- 1 0.0 1.0 186 186
r 10.70084 0 1 cbr 210 ------- 1 0.0 1.0 184 184
+ 10.70125 0 1 cbr 210 ------- 1 0.0 1.0 187 187
- 10.70125 0 1 cbr 210 ------- 1 0.0 1.0 187 187
r 10.70459 0 1 cbr 210 ------- 1 0.0 1.0 185 185
+ 10.705 0 1 cbr 210 ------- 1 0.0 1.0 188 188
- 10.705 0 1 cbr 210 ------- 1 0.0 1.0 188 188
r 10.70834 0 1 cbr 210 ------- 1 0.0 1.0 186 186
+ 10.70875 0 1 cbr 210 ------- 1 0.0 1.0 189 189
- 10.70875 0 1 cbr 210 ------- 1 0.0 1.0 189 189
r 10.71209 0 1 cbr 210 ------- 1 0.0 1.0 187 187
+ 10.7125 0 1 cbr 210 ------- 1 0.0 1.0 190 190
- 10.7125 0 1 cbr 210 ------- 1 0.0 1.0 190 190
r 10.71584 0 1 cbr 210 ------- 1 0.0 1.0 188 188
+ 10.71625 0 1 cbr 210 ------- 1 0.0 1.0 191 191
- 10.71625 0 1 cbr 210 ------- 1 0.0 1.0 191 191
r 10.71959 0 1 cbr 210 ------- 1 0.0 1.0 189 189
+ 10.72 0 1 cbr 210 ------- 1 0.0 1.0 192 192
- 10.72 0 1 cbr 210 ------- 1 0.0 1.0 192 192
r 10.72334 0 1 cbr 210 ------- 1 0.0 1.0 190 190
+ 10.72375 0 1 cbr 210 ------- 1 0.0 1.0 193 193
- 10.72375 0 1 cbr 210 ------- 1 0.0 1.0 193 193
r 10.72709 0 1 cbr 210 ------- 1 0.0 1.0 191 191
+ 10.7275 0 1 cbr 210 ------- 1 0.0 1.0 194 194
- 10.7275 0 1 cbr 210 ------- 1 0.0 1.0 194 194
r 10.73084 0 1 cbr 210 ------- 1 0.0 1.0 192 192
+ 10.73125 0 1 cbr 210 ------- 1 0.0 1.0 195 195
- 10.73125 0 1 cbr 210 ------- 1 0.0 1.0 195 195
r 10.73459 0 1 cbr 210 ------- 1 0.0 1.0 193 193
+ 10.735 0 1 cbr 210 ------- 1 0.0 1.0 196 196
- 10.735 0 1 cbr 210 ------- 1 0.0 1.0 196 196
r 10.73834 0 1 cbr 210 ------- 1 0.0 1.0 194 194
+ 10.73875 0 1 cbr 210 ------- 1 0.0 1.0 197 197
- 10.73875 0 1 cbr 210 ------- 1 0.0 1.0 197 197
r 10.74209 0 1 cbr 210 ------- 1 0.0 1.0 195 195
+ 10.7425 0 1 cbr 210 ------- 1 0.0 1.0 198 198
- 10.7425 0 1 cbr 210 ------- 1 0.0 1.0 198 198
r 10.74584 0 1 cbr 210 ------- 1 0.0 1.0 196 196
+ 10.74625 0 1 cbr 210 ------- 1 0.0 1.0 199 199
- 10.74625 0 1 cbr 210 ------- 1 0.0 1.0 199 199
r 10.74959 0 1 cbr 210 ------- 1 0.0 1.0 197 197
+ 10.75 0 1 cbr 210 ------- 1 0.0 1.0 200 200
- 10.75 0 1 cbr 210 ------- 1 0.0 1.0 200 200
r 10.75334 0 1 cbr 210 ------- 1 0.0 1.0 198 198
+ 10.75375 0 1 cbr 210 ------- 1 0.0 1.0 201 201
- 10.75375 0 1 cbr 210 ------- 1 0.0 1.0 201 201
r 10.75709 0 1 cbr 210 ------- 1 0.0 1.0 199 199
+ 10.7575 0 1 cbr 210 ------- 1 0.0 1.0 202 202
- 10.7575 0 1 cbr 210 ------- 1 0.0 1.0 202 202
r 10.76084 0 1 cbr 210 ------- 1 0.0 1.0 200 200
+ 10.76125 0 1 cbr 210 ------- 1 0.0 1.0 203 203
- 10.76125 0 1 cbr 210 ------- 1 0.0 1.0 203 203
r 10.76459 0 1 cbr 210 ------- 1 0.0 1.0 201 201
+ 10.765 0 1 cbr 210 ------- 1 0.0 1.0 204 204
- 10.765 0 1 cbr 210 ------- 1 0.0 1.0 204 204
r 10.76834 0 1 cbr 210 ------- 1 0.0 1.0 202 202
+ 10.76875 0 1 cbr 210 ------- 1 0.0 1.0 205 205
- 10.76875 0 1 cbr 210 ------- 1 0.0 1.0 205 205
r 10.77209 0 1 cbr 210 ------- 1 0.0 1.0 203 203
+ 10.7725 0 1 cbr 210 ------- 1 0.0 1.0 206 206
- 10.7725 0 1 cbr 210 ------- 1 0.0 1.0 206 206
r 10.77584 0 1 cbr 210 ------- 1 0.0 1.0 204 204
+ 10.77625 0 1 cbr 210 ------- 1 0.0 1.0 207 207
- 10.77625 0 1 cbr 210 ------- 1 0.0 1.0 207 207
r 10.77959 0 1 cbr 210 ------- 1 0.0 1.0 205 205
+ 10.78 0 1 cbr 210 ------- 1 0.0 1.0 208 208
- 10.78 0 1 cbr 210 ------- 1 0.0 1.0 208 208
r 10.78334 0 1 cbr 210 ------- 1 0.0 1.0 206 206
+ 10.78375 0 1 cbr 210 ------- 1 0.0 1.0 209 209
- 10.78375 0 1 cbr 210 ------- 1 0.0 1.0 209 209
r 10.78709 0 1 cbr 210 ------- 1 0.0 1.0 207 207
+ 10.7875 0 1 cbr 210 ------- 1 0.0 1.0 210 210
- 10.7875 0 1 cbr 210 ------- 1 0.0 1.0 210 210
r 10.79084 0 1 cbr 210 ------- 1 0.0 1.0 208 208
+ 10.79125 0 1 cbr 210 ------- 1 0.0 1.0 211 211
- 10.79125 0 1 cbr 210 ------- 1 0.0 1.0 211 211