+ 10 0 1 cbr 210 ------- 1 0.0 1.0 0 0
- 10 0 1 cbr 210 ------- 1 0.0 1.0 0 0
+ 10 0 1 cbr 210 ------- 2 0.1 1.0 0 1
- 10.00084 0 1 cbr 210 ------- 2 0.1 1.0 0 1
+ 10.000933 0 1 cbr 210 ------- 2 0.1 1.0 1 2
- 10.00168 0 1 cbr 210 ------- 2 0.1 1.0 1 2
+ 10.001867 0 1 cbr 210 ------- 2 0.1 1.0 2 3
- 10.00252 0 1 cbr 210 ------- 2 0.1 1.0 2 3
+ 10.0028 0 1 cbr 210 ------- 2 0.1 1.0 3 4
- 10.00336 0 1 cbr 210 ------- 2 0.1 1.0 3 4
+ 10.003733 0 1 cbr 210 ------- 2 0.1 1.0 4 5
+ 10.00375 0 1 cbr 210 ------- 1 0.0 1.0 1 6
- 10.0042 0 1 cbr 210 ------- 2 0.1 1.0 4 5
+ 10.004667 0 1 cbr 210 ------- 2 0.1 1.0 5 7
- 10.00504 0 1 cbr 210 ------- 1 0.0 1.0 1 6
+ 10.0056 0 1 cbr 210 ------- 2 0.1 1.0 6 8
- 10.00588 0 1 cbr 210 ------- 2 0.1 1.0 5 7
+ 10.006533 0 1 cbr 210 ------- 2 0.1 1.0 7 9
- 10.00672 0 1 cbr 210 ------- 2 0.1 1.0 6 8
+ 10.007467 0 1 cbr 210 ------- 2 0.1 1.0 8 10
+ 10.0075 0 1 cbr 210 ------- 1 0.0 1.0 2 11
- 10.00756 0 1 cbr 210 ------- 2 0.1 1.0 7 9
- 10.0084 0 1 cbr 210 ------- 2 0.1 1.0 8 10
+ 10.0084 0 1 cbr 210 ------- 2 0.1 1.0 9 12
- 10.00924 0 1 cbr 210 ------- 1 0.0 1.0 2 11
+ 10.009333 0 1 cbr 210 ------- 2 0.1 1.0 10 13
- 10.01008 0 1 cbr 210 ------- 2 0.1 1.0 9 12
+ 10.010267 0 1 cbr 210 ------- 2 0.1 1.0 11 14
r 10.01084 0 1 cbr 210 ------- 1 0.0 1.0 0 0
- 10.01092 0 1 cbr 210 ------- 2 0.1 1.0 10 13
+ 10.0112 0 1 cbr 210 ------- 2 0.1 1.0 12 15
+ 10.01125 0 1 cbr 210 ------- 1 0.0 1.0 3 16
r 10.01168 0 1 cbr 210 ------- 2 0.1 1.0 0 1
- 10.01176 0 1 cbr 210 ------- 2 0.1 1.0 11 14
+ 10.012133 0 1 cbr 210 ------- 2 0.1 1.0 13 17
r 10.01252 0 1 cbr 210 ------- 2 0.1 1.0 1 2
- 10.0126 0 1 cbr 210 ------- 2 0.1 1.0 12 15
+ 10.013067 0 1 cbr 210 ------- 2 0.1 1.0 14 18
r 10.01336 0 1 cbr 210 ------- 2 0.1 1.0 2 3
- 10.01344 0 1 cbr 210 ------- 1 0.0 1.0 3 16
+ 10.014 0 1 cbr 210 ------- 2 0.1 1.0 15 19
r 10.0142 0 1 cbr 210 ------- 2 0.1 1.0 3 4
- 10.01428 0 1 cbr 210 ------- 2 0.1 1.0 13 17
+ 10.014933 0 1 cbr 210 ------- 2 0.1 1.0 16 20
+ 10.015 0 1 cbr 210 ------- 1 0.0 1.0 4 21
r 10.01504 0 1 cbr 210 ------- 2 0.1 1.0 4 5
- 10.01512 0 1 cbr 210 ------- 2 0.1 1.0 14 18
+ 10.015867 0 1 cbr 210 ------- 2 0.1 1.0 17 22
r 10.01588 0 1 cbr 210 ------- 1 0.0 1.0 1 6
- 10.01596 0 1 cbr 210 ------- 2 0.1 1.0 15 19
r 10.01672 0 1 cbr 210 ------- 2 0.1 1.0 5 7
- 10.0168 0 1 cbr 210 ------- 2 0.1 1.0 16 20
+ 10.0168 0 1 cbr 210 ------- 2 0.1 1.0 18 23
r 10.01756 0 1 cbr 210 ------- 2 0.1 1.0 6 8
- 10.01764 0 1 cbr 210 ------- 1 0.0 1.0 4 21
+ 10.017733 0 1 cbr 210 ------- 2 0.1 1.0 19 24
r 10.0184 0 1 cbr 210 ------- 2 0.1 1.0 7 9
- 10.01848 0 1 cbr 210 ------- 2 0.1 1.0 17 22
+ 10.018667 0 1 cbr 210 ------- 2 0.1 1.0 20 25
+ 10.01875 0 1 cbr 210 ------- 1 0.0 1.0 5 26
r 10.01924 0 1 cbr 210 ------- 2 0.1 1.0 8 10
- 10.01932 0 1 cbr 210 ------- 2 0.1 1.0 18 23
+ 10.0196 0 1 cbr 210 ------- 2 0.1 1.0 21 27
r 10.02008 0 1 cbr 210 ------- 1 0.0 1.0 2 11
- 10.02016 0 1 cbr 210 ------- 2 0.1 1.0 19 24
+ 10.020533 0 1 cbr 210 ------- 2 0.1 1.0 22 28
r 10.02092 0 1 cbr 210 ------- 2 0.1 1.0 9 12
- 10.021 0 1 cbr 210 ------- 2 0.1 1.0 20 25
+ 10.021467 0 1 cbr 210 ------- 2 0.1 1.0 23 29
r 10.02176 0 1 cbr 210 ------- 2 0.1 1.0 10 13
- 10.02184 0 1 cbr 210 ------- 1 0.0 1.0 5 26
+ 10.0224 0 1 cbr 210 ------- 2 0.1 1.0 24 30
+ 10.0225 0 1 cbr 210 ------- 1 0.0 1.0 6 31
r 10.0226 0 1 cbr 210 ------- 2 0.1 1.0 11 14
- 10.02268 0 1 cbr 210 ------- 2 0.1 1.0 21 27
+ 10.023333 0 1 cbr 210 ------- 2 0.1 1.0 25 32
r 10.02344 0 1 cbr 210 ------- 2 0.1 1.0 12 15
- 10.02352 0 1 cbr 210 ------- 2 0.1 1.0 22 28
+ 10.024267 0 1 cbr 210 ------- 2 0.1 1.0 26 33
r 10.02428 0 1 cbr 210 ------- 1 0.0 1.0 3 16
- 10.02436 0 1 cbr 210 ------- 2 0.1 1.0 23 29
r 10.02512 0 1 cbr 210 ------- 2 0.1 1.0 13 17
- 10.0252 0 1 cbr 210 ------- 2 0.1 1.0 24 30
+ 10.0252 0 1 cbr 210 ------- 2 0.1 1.0 27 34
r 10.02596 0 1 cbr 210 ------- 2 0.1 1.0 14 18
- 10.02604 0 1 cbr 210 ------- 1 0.0 1.0 6 31
+ 10.026133 0 1 cbr 210 ------- 2 0.1 1.0 28 35
+ 10.02625 0 1 cbr 210 ------- 1 0.0 1.0 7 36
r 10.0268 0 1 cbr 210 ------- 2 0.1 1.0 15 19
- 10.02688 0 1 cbr 210 ------- 2 0.1 1.0 25 32
+ 10.027067 0 1 cbr 210 ------- 2 0.1 1.0 29 37
r 10.02764 0 1 cbr 210 ------- 2 0.1 1.0 16 20
- 10.02772 0 1 cbr 210 ------- 2 0.1 1.0 26 33
+ 10.028 0 1 cbr 210 ------- 2 0.1 1.0 30 38
r 10.02848 0 1 cbr 210 ------- 1 0.0 1.0 4 21
- 10.02856 0 1 cbr 210 ------- 2 0.1 1.0 27 34
+ 10.028933 0 1 cbr 210 ------- 2 0.1 1.0 31 39
r 10.02932 0 1 cbr 210 ------- 2 0.1 1.0 17 22
- 10.0294 0 1 cbr 210 ------- 2 0.1 1.0 28 35
+ 10.029867 0 1 cbr 210 ------- 2 0.1 1.0 32 40
+ 10.03 0 1 cbr 210 ------- 1 0.0 1.0 8 41
r 10.03016 0 1 cbr 210 ------- 2 0.1 1.0 18 23
- 10.03024 0 1 cbr 210 ------- 1 0.0 1.0 7 36
+ 10.0308 0 1 cbr 210 ------- 2 0.1 1.0 33 42
r 10.031 0 1 cbr 210 ------- 2 0.1 1.0 19 24
- 10.03108 0 1 cbr 210 ------- 2 0.1 1.0 29 37
+ 10.031733 0 1 cbr 210 ------- 2 0.1 1.0 34 43
r 10.03184 0 1 cbr 210 ------- 2 0.1 1.0 20 25
- 10.03192 0 1 cbr 210 ------- 2 0.1 1.0 30 38
+ 10.032667 0 1 cbr 210 ------- 2 0.1 1.0 35 44
r 10.03268 0 1 cbr 210 ------- 1 0.0 1.0 5 26
- 10.03276 0 1 cbr 210 ------- 2 0.1 1.0 31 39
r 10.03352 0 1 cbr 210 ------- 2 0.1 1.0 21 27
- 10.0336 0 1 cbr 210 ------- 2 0.1 1.0 32 40
+ 10.0336 0 1 cbr 210 ------- 2 0.1 1.0 36 45
+ 10.03375 0 1 cbr 210 ------- 1 0.0 1.0 9 46
r 10.03436 0 1 cbr 210 ------- 2 0.1 1.0 22 28
- 10.03444 0 1 cbr 210 ------- 1 0.0 1.0 8 41
+ 10.034533 0 1 cbr 210 ------- 2 0.1 1.0 37 47
r 10.0352 0 1 cbr 210 ------- 2 0.1 1.0 23 29
- 10.03528 0 1 cbr 210 ------- 2 0.1 1.0 33 42
+ 10.035467 0 1 cbr 210 ------- 2 0.1 1.0 38 48
r 10.03604 0 1 cbr 210 ------- 2 0.1 1.0 24 30
- 10.03612 0 1 cbr 210 ------- 2 0.1 1.0 34 43
+ 10.0364 0 1 cbr 210 ------- 2 0.1 1.0 39 49
r 10.03688 0 1 cbr 210 ------- 1 0.0 1.0 6 31
- 10.03696 0 1 cbr 210 ------- 2 0.1 1.0 35 44
+ 10.037333 0 1 cbr 210 ------- 2 0.1 1.0 40 50
+ 10.0375 0 1 cbr 210 ------- 1 0.0 1.0 10 51
r 10.03772 0 1 cbr 210 ------- 2 0.1 1.0 25 32
- 10.0378 0 1 cbr 210 ------- 2 0.1 1.0 36 45
+ 10.038267 0 1 cbr 210 ------- 2 0.1 1.0 41 52
r 10.03856 0 1 cbr 210 ------- 2 0.1 1.0 26 33
- 10.03864 0 1 cbr 210 ------- 1 0.0 1.0 9 46
+ 10.0392 0 1 cbr 210 ------- 2 0.1 1.0 42 53
r 10.0394 0 1 cbr 210 ------- 2 0.1 1.0 27 34
- 10.03948 0 1 cbr 210 ------- 2 0.1 1.0 37 47
+ 10.040133 0 1 cbr 210 ------- 2 0.1 1.0 43 54
r 10.04024 0 1 cbr 210 ------- 2 0.1 1.0 28 35
- 10.04032 0 1 cbr 210 ------- 2 0.1 1.0 38 48
+ 10.041067 0 1 cbr 210 ------- 2 0.1 1.0 44 55
r 10.04108 0 1 cbr 210 ------- 1 0.0 1.0 7 36
- 10.04116 0 1 cbr 210 ------- 2 0.1 1.0 39 49
+ 10.04125 0 1 cbr 210 ------- 1 0.0 1.0 11 56
r 10.04192 0 1 cbr 210 ------- 2 0.1 1.0 29 37
- 10.042 0 1 cbr 210 ------- 2 0.1 1.0 40 50
+ 10.042 0 1 cbr 210 ------- 2 0.1 1.0 45 57
r 10.04276 0 1 cbr 210 ------- 2 0.1 1.0 30 38
- 10.04284 0 1 cbr 210 ------- 1 0.0 1.0 10 51
+ 10.042933 0 1 cbr 210 ------- 2 0.1 1.0 46 58
r 10.0436 0 1 cbr 210 ------- 2 0.1 1.0 31 39
- 10.04368 0 1 cbr 210 ------- 2 0.1 1.0 41 52
+ 10.043867 0 1 cbr 210 ------- 2 0.1 1.0 47 59
r 10.04444 0 1 cbr 210 ------- 2 0.1 1.0 32 40
- 10.04452 0 1 cbr 210 ------- 2 0.1 1.0 42 53
+ 10.0448 0 1 cbr 210 ------- 2 0.1 1.0 48 60
+ 10.045 0 1 cbr 210 ------- 1 0.0 1.0 12 61
r 10.04528 0 1 cbr 210 ------- 1 0.0 1.0 8 41
- 10.04536 0 1 cbr 210 ------- 2 0.1 1.0 43 54
+ 10.045733 0 1 cbr 210 ------- 2 0.1 1.0 49 62
r 10.04612 0 1 cbr 210 ------- 2 0.1 1.0 33 42
- 10.0462 0 1 cbr 210 ------- 2 0.1 1.0 44 55
+ 10.046667 0 1 cbr 210 ------- 2 0.1 1.0 50 63
r 10.04696 0 1 cbr 210 ------- 2 0.1 1.0 34 43
- 10.04704 0 1 cbr 210 ------- 1 0.0 1.0 11 56
+ 10.0476 0 1 cbr 210 ------- 2 0.1 1.0 51 64
r 10.0478 0 1 cbr 210 ------- 2 0.1 1.0 35 44
- 10.04788 0 1 cbr 210 ------- 2 0.1 1.0 45 57
+ 10.048533 0 1 cbr 210 ------- 2 0.1 1.0 52 65
r 10.04864 0 1 cbr 210 ------- 2 0.1 1.0 36 45
- 10.04872 0 1 cbr 210 ------- 2 0.1 1.0 46 58
+ 10.04875 0 1 cbr 210 ------- 1 0.0 1.0 13 66
+ 10.049467 0 1 cbr 210 ------- 2 0.1 1.0 53 67
r 10.04948 0 1 cbr 210 ------- 1 0.0 1.0 9 46
- 10.04956 0 1 cbr 210 ------- 2 0.1 1.0 47 59
r 10.05032 0 1 cbr 210 ------- 2 0.1 1.0 37 47
- 10.0504 0 1 cbr 210 ------- 2 0.1 1.0 48 60
+ 10.0504 0 1 cbr 210 ------- 2 0.1 1.0 54 68
r 10.05116 0 1 cbr 210 ------- 2 0.1 1.0 38 48
- 10.05124 0 1 cbr 210 ------- 1 0.0 1.0 12 61
+ 10.051333 0 1 cbr 210 ------- 2 0.1 1.0 55 69
r 10.052 0 1 cbr 210 ------- 2 0.1 1.0 39 49
- 10.05208 0 1 cbr 210 ------- 2 0.1 1.0 49 62
+ 10.052267 0 1 cbr 210 ------- 2 0.1 1.0 56 70
+ 10.0525 0 1 cbr 210 ------- 1 0.0 1.0 14 71
r 10.05284 0 1 cbr 210 ------- 2 0.1 1.0 40 50
- 10.05292 0 1 cbr 210 ------- 2 0.1 1.0 50 63
+ 10.0532 0 1 cbr 210 ------- 2 0.1 1.0 57 72
r 10.05368 0 1 cbr 210 ------- 1 0.0 1.0 10 51
- 10.05376 0 1 cbr 210 ------- 2 0.1 1.0 51 64
+ 10.054133 0 1 cbr 210 ------- 2 0.1 1.0 58 73
r 10.05452 0 1 cbr 210 ------- 2 0.1 1.0 41 52
- 10.0546 0 1 cbr 210 ------- 2 0.1 1.0 52 65
+ 10.055067 0 1 cbr 210 ------- 2 0.1 1.0 59 74
r 10.05536 0 1 cbr 210 ------- 2 0.1 1.0 42 53
- 10.05544 0 1 cbr 210 ------- 1 0.0 1.0 13 66
+ 10.056 0 1 cbr 210 ------- 2 0.1 1.0 60 75
r 10.0562 0 1 cbr 210 ------- 2 0.1 1.0 43 54
+ 10.05625 0 1 cbr 210 ------- 1 0.0 1.0 15 76
- 10.05628 0 1 cbr 210 ------- 2 0.1 1.0 53 67
+ 10.056933 0 1 cbr 210 ------- 2 0.1 1.0 61 77
r 10.05704 0 1 cbr 210 ------- 2 0.1 1.0 44 55
- 10.05712 0 1 cbr 210 ------- 2 0.1 1.0 54 68
+ 10.057867 0 1 cbr 210 ------- 2 0.1 1.0 62 78
r 10.05788 0 1 cbr 210 ------- 1 0.0 1.0 11 56
- 10.05796 0 1 cbr 210 ------- 2 0.1 1.0 55 69
r 10.05872 0 1 cbr 210 ------- 2 0.1 1.0 45 57
- 10.0588 0 1 cbr 210 ------- 2 0.1 1.0 56 70
+ 10.0588 0 1 cbr 210 ------- 2 0.1 1.0 63 79
r 10.05956 0 1 cbr 210 ------- 2 0.1 1.0 46 58
- 10.05964 0 1 cbr 210 ------- 1 0.0 1.0 14 71
+ 10.059733 0 1 cbr 210 ------- 2 0.1 1.0 64 80
+ 10.06 0 1 cbr 210 ------- 1 0.0 1.0 16 81
r 10.0604 0 1 cbr 210 ------- 2 0.1 1.0 47 59
- 10.06048 0 1 cbr 210 ------- 2 0.1 1.0 57 72
+ 10.060667 0 1 cbr 210 ------- 2 0.1 1.0 65 82
r 10.06124 0 1 cbr 210 ------- 2 0.1 1.0 48 60
- 10.06132 0 1 cbr 210 ------- 2 0.1 1.0 58 73
+ 10.0616 0 1 cbr 210 ------- 2 0.1 1.0 66 83
r 10.06208 0 1 cbr 210 ------- 1 0.0 1.0 12 61
- 10.06216 0 1 cbr 210 ------- 2 0.1 1.0 59 74
+ 10.062533 0 1 cbr 210 ------- 2 0.1 1.0 67 84
r 10.06292 0 1 cbr 210 ------- 2 0.1 1.0 49 62
- 10.063 0 1 cbr 210 ------- 2 0.1 1.0 60 75
+ 10.063467 0 1 cbr 210 ------- 2 0.1 1.0 68 85
+ 10.06375 0 1 cbr 210 ------- 1 0.0 1.0 17 86
r 10.06376 0 1 cbr 210 ------- 2 0.1 1.0 50 63
- 10.06384 0 1 cbr 210 ------- 1 0.0 1.0 15 76
+ 10.0644 0 1 cbr 210 ------- 2 0.1 1.0 69 87
r 10.0646 0 1 cbr 210 ------- 2 0.1 1.0 51 64
- 10.06468 0 1 cbr 210 ------- 2 0.1 1.0 61 77
+ 10.065333 0 1 cbr 210 ------- 2 0.1 1.0 70 88
r 10.06544 0 1 cbr 210 ------- 2 0.1 1.0 52 65
- 10.06552 0 1 cbr 210 ------- 2 0.1 1.0 62 78
+ 10.066267 0 1 cbr 210 ------- 2 0.1 1.0 71 89
r 10.06628 0 1 cbr 210 ------- 1 0.0 1.0 13 66
- 10.06636 0 1 cbr 210 ------- 2 0.1 1.0 63 79
r 10.06712 0 1 cbr 210 ------- 2 0.1 1.0 53 67
- 10.0672 0 1 cbr 210 ------- 2 0.1 1.0 64 80
+ 10.0672 0 1 cbr 210 ------- 2 0.1 1.0 72 90
+ 10.0675 0 1 cbr 210 ------- 1 0.0 1.0 18 91
r 10.06796 0 1 cbr 210 ------- 2 0.1 1.0 54 68
- 10.06804 0 1 cbr 210 ------- 1 0.0 1.0 16 81
+ 10.068133 0 1 cbr 210 ------- 2 0.1 1.0 73 92
r 10.0688 0 1 cbr 210 ------- 2 0.1 1.0 55 69
- 10.06888 0 1 cbr 210 ------- 2 0.1 1.0 65 82
+ 10.069067 0 1 cbr 210 ------- 2 0.1 1.0 74 93
r 10.06964 0 1 cbr 210 ------- 2 0.1 1.0 56 70
- 10.06972 0 1 cbr 210 ------- 2 0.1 1.0 66 83
+ 10.07 0 1 cbr 210 ------- 2 0.1 1.0 75 94
r 10.07048 0 1 cbr 210 ------- 1 0.0 1.0 14 71
- 10.07056 0 1 cbr 210 ------- 2 0.1 1.0 67 84
+ 10.070933 0 1 cbr 210 ------- 2 0.1 1.0 76 95
+ 10.07125 0 1 cbr 210 ------- 1 0.0 1.0 19 96
r 10.07132 0 1 cbr 210 ------- 2 0.1 1.0 57 72
- 10.0714 0 1 cbr 210 ------- 2 0.1 1.0 68 85
+ 10.071867 0 1 cbr 210 ------- 2 0.1 1.0 77 97
r 10.07216 0 1 cbr 210 ------- 2 0.1 1.0 58 73
- 10.07224 0 1 cbr 210 ------- 1 0.0 1.0 17 86
+ 10.0728 0 1 cbr 210 ------- 2 0.1 1.0 78 98
r 10.073 0 1 cbr 210 ------- 2 0.1 1.0 59 74
- 10.07308 0 1 cbr 210 ------- 2 0.1 1.0 69 87
+ 10.073733 0 1 cbr 210 ------- 2 0.1 1.0 79 99
r 10.07384 0 1 cbr 210 ------- 2 0.1 1.0 60 75
- 10.07392 0 1 cbr 210 ------- 2 0.1 1.0 70 88
+ 10.074667 0 1 cbr 210 ------- 2 0.1 1.0 80 100
r 10.07468 0 1 cbr 210 ------- 1 0.0 1.0 15 76
- 10.07476 0 1 cbr 210 ------- 2 0.1 1.0 71 89
+ 10.075 0 1 cbr 210 ------- 1 0.0 1.0 20 101
r 10.07552 0 1 cbr 210 ------- 2 0.1 1.0 61 77
- 10.0756 0 1 cbr 210 ------- 2 0.1 1.0 72 90
+ 10.0756 0 1 cbr 210 ------- 2 0.1 1.0 81 102
r 10.07636 0 1 cbr 210 ------- 2 0.1 1.0 62 78
- 10.07644 0 1 cbr 210 ------- 1 0.0 1.0 18 91
+ 10.076533 0 1 cbr 210 ------- 2 0.1 1.0 82 103
r 10.0772 0 1 cbr 210 ------- 2 0.1 1.0 63 79
- 10.07728 0 1 cbr 210 ------- 2 0.1 1.0 73 92
+ 10.077467 0 1 cbr 210 ------- 2 0.1 1.0 83 104
r 10.07804 0 1 cbr 210 ------- 2 0.1 1.0 64 80
- 10.07812 0 1 cbr 210 ------- 2 0.1 1.0 74 93
+ 10.0784 0 1 cbr 210 ------- 2 0.1 1.0 84 105
+ 10.07875 0 1 cbr 210 ------- 1 0.0 1.0 21 106
r 10.07888 0 1 cbr 210 ------- 1 0.0 1.0 16 81
- 10.07896 0 1 cbr 210 ------- 2 0.1 1.0 75 94
+ 10.079333 0 1 cbr 210 ------- 2 0.1 1.0 85 107
r 10.07972 0 1 cbr 210 ------- 2 0.1 1.0 65 82
- 10.0798 0 1 cbr 210 ------- 2 0.1 1.0 76 95
+ 10.080267 0 1 cbr 210 ------- 2 0.1 1.0 86 108
r 10.08056 0 1 cbr 210 ------- 2 0.1 1.0 66 83
- 10.08064 0 1 cbr 210 ------- 1 0.0 1.0 19 96
+ 10.0812 0 1 cbr 210 ------- 2 0.1 1.0 87 109
r 10.0814 0 1 cbr 210 ------- 2 0.1 1.0 67 84
- 10.08148 0 1 cbr 210 ------- 2 0.1 1.0 77 97
+ 10.082133 0 1 cbr 210 ------- 2 0.1 1.0 88 110
r 10.08224 0 1 cbr 210 ------- 2 0.1 1.0 68 85
- 10.08232 0 1 cbr 210 ------- 2 0.1 1.0 78 98
+ 10.0825 0 1 cbr 210 ------- 1 0.0 1.0 22 111
+ 10.083067 0 1 cbr 210 ------- 2 0.1 1.0 89 112
r 10.08308 0 1 cbr 210 ------- 1 0.0 1.0 17 86
- 10.08316 0 1 cbr 210 ------- 2 0.1 1.0 79 99
r 10.08392 0 1 cbr 210 ------- 2 0.1 1.0 69 87
- 10.084 0 1 cbr 210 ------- 2 0.1 1.0 80 100
+ 10.084 0 1 cbr 210 ------- 2 0.1 1.0 90 113
r 10.08476 0 1 cbr 210 ------- 2 0.1 1.0 70 88
- 10.08484 0 1 cbr 210 ------- 1 0.0 1.0 20 101
+ 10.084933 0 1 cbr 210 ------- 2 0.1 1.0 91 114
r 10.0856 0 1 cbr 210 ------- 2 0.1 1.0 71 89
- 10.08568 0 1 cbr 210 ------- 2 0.1 1.0 81 102
+ 10.085867 0 1 cbr 210 ------- 2 0.1 1.0 92 115
+ 10.08625 0 1 cbr 210 ------- 1 0.0 1.0 23 116
r 10.08644 0 1 cbr 210 ------- 2 0.1 1.0 72 90
- 10.08652 0 1 cbr 210 ------- 2 0.1 1.0 82 103
+ 10.0868 0 1 cbr 210 ------- 2 0.1 1.0 93 117
r 10.08728 0 1 cbr 210 ------- 1 0.0 1.0 18 91
- 10.08736 0 1 cbr 210 ------- 2 0.1 1.0 83 104
+ 10.087733 0 1 cbr 210 ------- 2 0.1 1.0 94 118
r 10.08812 0 1 cbr 210 ------- 2 0.1 1.0 73 92
- 10.0882 0 1 cbr 210 ------- 2 0.1 1.0 84 105
+ 10.088667 0 1 cbr 210 ------- 2 0.1 1.0 95 119
r 10.08896 0 1 cbr 210 ------- 2 0.1 1.0 74 93
- 10.08904 0 1 cbr 210 ------- 1 0.0 1.0 21 106
+ 10.0896 0 1 cbr 210 ------- 2 0.1 1.0 96 120
r 10.0898 0 1 cbr 210 ------- 2 0.1 1.0 75 94
- 10.08988 0 1 cbr 210 ------- 2 0.1 1.0 85 107
+ 10.09 0 1 cbr 210 ------- 1 0.0 1.0 24 121
+ 10.090533 0 1 cbr 210 ------- 2 0.1 1.0 97 122
r 10.09064 0 1 cbr 210 ------- 2 0.1 1.0 76 95
- 10.09072 0 1 cbr 210 ------- 2 0.1 1.0 86 108
+ 10.091467 0 1 cbr 210 ------- 2 0.1 1.0 98 123
r 10.09148 0 1 cbr 210 ------- 1 0.0 1.0 19 96
- 10.09156 0 1 cbr 210 ------- 2 0.1 1.0 87 109
r 10.09232 0 1 cbr 210 ------- 2 0.1 1.0 77 97
- 10.0924 0 1 cbr 210 ------- 2 0.1 1.0 88 110
+ 10.0924 0 1 cbr 210 ------- 2 0.1 1.0 99 124
r 10.09316 0 1 cbr 210 ------- 2 0.1 1.0 78 98
- 10.09324 0 1 cbr 210 ------- 1 0.0 1.0 22 111
+ 10.093333 0 1 cbr 210 ------- 2 0.1 1.0 100 125
+ 10.09375 0 1 cbr 210 ------- 1 0.0 1.0 25 126
r 10.094 0 1 cbr 210 ------- 2 0.1 1.0 79 99
- 10.09408 0 1 cbr 210 ------- 2 0.1 1.0 89 112
+ 10.094267 0 1 cbr 210 ------- 2 0.1 1.0 101 127
r 10.09484 0 1 cbr 210 ------- 2 0.1 1.0 80 100
- 10.09492 0 1 cbr 210 ------- 2 0.1 1.0 90 113
+ 10.0952 0 1 cbr 210 ------- 2 0.1 1.0 102 128
r 10.09568 0 1 cbr 210 ------- 1 0.0 1.0 20 101
- 10.09576 0 1 cbr 210 ------- 2 0.1 1.0 91 114
+ 10.096133 0 1 cbr 210 ------- 2 0.1 1.0 103 129
r 10.09652 0 1 cbr 210 ------- 2 0.1 1.0 81 102
- 10.0966 0 1 cbr 210 ------- 2 0.1 1.0 92 115
+ 10.097067 0 1 cbr 210 ------- 2 0.1 1.0 104 130
r 10.09736 0 1 cbr 210 ------- 2 0.1 1.0 82 103
- 10.09744 0 1 cbr 210 ------- 1 0.0 1.0 23 116
+ 10.0975 0 1 cbr 210 ------- 1 0.0 1.0 26 131
+ 10.098 0 1 cbr 210 ------- 2 0.1 1.0 105 132
r 10.0982 0 1 cbr 210 ------- 2 0.1 1.0 83 104
- 10.09828 0 1 cbr 210 ------- 2 0.1 1.0 93 117
+ 10.098933 0 1 cbr 210 ------- 2 0.1 1.0 106 133
r 10.09904 0 1 cbr 210 ------- 2 0.1 1.0 84 105
- 10.09912 0 1 cbr 210 ------- 2 0.1 1.0 94 118
+ 10.099867 0 1 cbr 210 ------- 2 0.1 1.0 107 134
r 10.09988 0 1 cbr 210 ------- 1 0.0 1.0 21 106
- 10.09996 0 1 cbr 210 ------- 2 0.1 1.0 95 119
r 10.10072 0 1 cbr 210 ------- 2 0.1 1.0 85 107
- 10.1008 0 1 cbr 210 ------- 2 0.1 1.0 96 120
+ 10.1008 0 1 cbr 210 ------- 2 0.1 1.0 108 135
+ 10.10125 0 1 cbr 210 ------- 1 0.0 1.0 27 136
r 10.10156 0 1 cbr 210 ------- 2 0.1 1.0 86 108
- 10.10164 0 1 cbr 210 ------- 1 0.0 1.0 24 121
+ 10.101733 0 1 cbr 210 ------- 2 0.1 1.0 109 137
r 10.1024 0 1 cbr 210 ------- 2 0.1 1.0 87 109
- 10.10248 0 1 cbr 210 ------- 2 0.1 1.0 97 122
+ 10.102667 0 1 cbr 210 ------- 2 0.1 1.0 110 138
r 10.10324 0 1 cbr 210 ------- 2 0.1 1.0 88 110
- 10.10332 0 1 cbr 210 ------- 2 0.1 1.0 98 123
+ 10.1036 0 1 cbr 210 ------- 2 0.1 1.0 111 139
r 10.10408 0 1 cbr 210 ------- 1 0.0 1.0 22 111
- 10.10416 0 1 cbr 210 ------- 2 0.1 1.0 99 124
+ 10.104533 0 1 cbr 210 ------- 2 0.1 1.0 112 140
r 10.10492 0 1 cbr 210 ------- 2 0.1 1.0 89 112
+ 10.105 0 1 cbr 210 ------- 1 0.0 1.0 28 141
- 10.105 0 1 cbr 210 ------- 2 0.1 1.0 100 125
+ 10.105467 0 1 cbr 210 ------- 2 0.1 1.0 113 142
r 10.10576 0 1 cbr 210 ------- 2 0.1 1.0 90 113
- 10.10584 0 1 cbr 210 ------- 1 0.0 1.0 25 126
+ 10.1064 0 1 cbr 210 ------- 2 0.1 1.0 114 143
r 10.1066 0 1 cbr 210 ------- 2 0.1 1.0 91 114
- 10.10668 0 1 cbr 210 ------- 2 0.1 1.0 101 127
+ 10.107333 0 1 cbr 210 ------- 2 0.1 1.0 115 144
r 10.10744 0 1 cbr 210 ------- 2 0.1 1.0 92 115
- 10.10752 0 1 cbr 210 ------- 2 0.1 1.0 102 128
+ 10.108267 0 1 cbr 210 ------- 2 0.1 1.0 116 145
r 10.10828 0 1 cbr 210 ------- 1 0.0 1.0 23 116
- 10.10836 0 1 cbr 210 ------- 2 0.1 1.0 103 129
+ 10.10875 0 1 cbr 210 ------- 1 0.0 1.0 29 146
r 10.10912 0 1 cbr 210 ------- 2 0.1 1.0 93 117
- 10.1092 0 1 cbr 210 ------- 2 0.1 1.0 104 130
+ 10.1092 0 1 cbr 210 ------- 2 0.1 1.0 117 147
r 10.10996 0 1 cbr 210 ------- 2 0.1 1.0 94 118
- 10.11004 0 1 cbr 210 ------- 1 0.0 1.0 26 131
+ 10.110133 0 1 cbr 210 ------- 2 0.1 1.0 118 148
r 10.1108 0 1 cbr 210 ------- 2 0.1 1.0 95 119
- 10.11088 0 1 cbr 210 ------- 2 0.1 1.0 105 132
+ 10.111067 0 1 cbr 210 ------- 2 0.1 1.0 119 149
r 10.11164 0 1 cbr 210 ------- 2 0.1 1.0 96 120
- 10.11172 0 1 cbr 210 ------- 2 0.1 1.0 106 133
+ 10.112 0 1 cbr 210 ------- 2 0.1 1.0 120 150
r 10.11248 0 1 cbr 210 ------- 1 0.0 1.0 24 121
+ 10.1125 0 1 cbr 210 ------- 1 0.0 1.0 30 151
- 10.11256 0 1 cbr 210 ------- 2 0.1 1.0 107 134
+ 10.112933 0 1 cbr 210 ------- 2 0.1 1.0 121 152
r 10.11332 0 1 cbr 210 ------- 2 0.1 1.0 97 122
- 10.1134 0 1 cbr 210 ------- 2 0.1 1.0 108 135
+ 10.113867 0 1 cbr 210 ------- 2 0.1 1.0 122 153
r 10.11416 0 1 cbr 210 ------- 2 0.1 1.0 98 123
- 10.11424 0 1 cbr 210 ------- 1 0.0 1.0 27 136
+ 10.1148 0 1 cbr 210 ------- 2 0.1 1.0 123 154
r 10.115 0 1 cbr 210 ------- 2 0.1 1.0 99 124
- 10.11508 0 1 cbr 210 ------- 2 0.1 1.0 109 137
+ 10.115733 0 1 cbr 210 ------- 2 0.1 1.0 124 155
r 10.11584 0 1 cbr 210 ------- 2 0.1 1.0 100 125
- 10.11592 0 1 cbr 210 ------- 2 0.1 1.0 110 138
+ 10.11625 0 1 cbr 210 ------- 1 0.0 1.0 31 156
+ 10.116667 0 1 cbr 210 ------- 2 0.1 1.0 125 157
r 10.11668 0 1 cbr 210 ------- 1 0.0 1.0 25 126
- 10.11676 0 1 cbr 210 ------- 2 0.1 1.0 111 139
r 10.11752 0 1 cbr 210 ------- 2 0.1 1.0 101 127
- 10.1176 0 1 cbr 210 ------- 2 0.1 1.0 112 140
+ 10.1176 0 1 cbr 210 ------- 2 0.1 1.0 126 158
r 10.11836 0 1 cbr 210 ------- 2 0.1 1.0 102 128
- 10.11844 0 1 cbr 210 ------- 1 0.0 1.0 28 141
+ 10.118533 0 1 cbr 210 ------- 2 0.1 1.0 127 159
r 10.1192 0 1 cbr 210 ------- 2 0.1 1.0 103 129
- 10.11928 0 1 cbr 210 ------- 2 0.1 1.0 113 142
+ 10.119467 0 1 cbr 210 ------- 2 0.1 1.0 128 160
+ 10.12 0 1 cbr 210 ------- 1 0.0 1.0 32 161
r 10.12004 0 1 cbr 210 ------- 2 0.1 1.0 104 130
- 10.12012 0 1 cbr 210 ------- 2 0.1 1.0 114 143
+ 10.1204 0 1 cbr 210 ------- 2 0.1 1.0 129 162
r 10.12088 0 1 cbr 210 ------- 1 0.0 1.0 26 131
- 10.12096 0 1 cbr 210 ------- 2 0.1 1.0 115 144
+ 10.121333 0 1 cbr 210 ------- 2 0.1 1.0 130 163
r 10.12172 0 1 cbr 210 ------- 2 0.1 1.0 105 132
- 10.1218 0 1 cbr 210 ------- 2 0.1 1.0 116 145
+ 10.122267 0 1 cbr 210 ------- 2 0.1 1.0 131 164
r 10.12256 0 1 cbr 210 ------- 2 0.1 1.0 106 133
- 10.12264 0 1 cbr 210 ------- 1 0.0 1.0 29 146
+ 10.1232 0 1 cbr 210 ------- 2 0.1 1.0 132 165
r 10.1234 0 1 cbr 210 ------- 2 0.1 1.0 107 134
- 10.12348 0 1 cbr 210 ------- 2 0.1 1.0 117 147
+ 10.12375 0 1 cbr 210 ------- 1 0.0 1.0 33 166
+ 10.124133 0 1 cbr 210 ------- 2 0.1 1.0 133 167
r 10.12424 0 1 cbr 210 ------- 2 0.1 1.0 108 135
- 10.12432 0 1 cbr 210 ------- 2 0.1 1.0 118 148
+ 10.125067 0 1 cbr 210 ------- 2 0.1 1.0 134 168
r 10.12508 0 1 cbr 210 ------- 1 0.0 1.0 27 136
- 10.12516 0 1 cbr 210 ------- 2 0.1 1.0 119 149
r 10.12592 0 1 cbr 210 ------- 2 0.1 1.0 109 137
- 10.126 0 1 cbr 210 ------- 2 0.1 1.0 120 150
+ 10.126 0 1 cbr 210 ------- 2 0.1 1.0 135 169
r 10.12676 0 1 cbr 210 ------- 2 0.1 1.0 110 138
- 10.12684 0 1 cbr 210 ------- 1 0.0 1.0 30 151
+ 10.126933 0 1 cbr 210 ------- 2 0.1 1.0 136 170
+ 10.1275 0 1 cbr 210 ------- 1 0.0 1.0 34 171
r 10.1276 0 1 cbr 210 ------- 2 0.1 1.0 111 139
- 10.12768 0 1 cbr 210 ------- 2 0.1 1.0 121 152
+ 10.127867 0 1 cbr 210 ------- 2 0.1 1.0 137 172
r 10.12844 0 1 cbr 210 ------- 2 0.1 1.0 112 140
- 10.12852 0 1 cbr 210 ------- 2 0.1 1.0 122 153
+ 10.1288 0 1 cbr 210 ------- 2 0.1 1.0 138 173
r 10.12928 0 1 cbr 210 ------- 1 0.0 1.0 28 141
- 10.12936 0 1 cbr 210 ------- 2 0.1 1.0 123 154
+ 10.129733 0 1 cbr 210 ------- 2 0.1 1.0 139 174
r 10.13012 0 1 cbr 210 ------- 2 0.1 1.0 113 142
- 10.1302 0 1 cbr 210 ------- 2 0.1 1.0 124 155
+ 10.130667 0 1 cbr 210 ------- 2 0.1 1.0 140 175
r 10.13096 0 1 cbr 210 ------- 2 0.1 1.0 114 143
- 10.13104 0 1 cbr 210 ------- 1 0.0 1.0 31 156
+ 10.13125 0 1 cbr 210 ------- 1 0.0 1.0 35 176
+ 10.1316 0 1 cbr 210 ------- 2 0.1 1.0 141 177
r 10.1318 0 1 cbr 210 ------- 2 0.1 1.0 115 144
- 10.13188 0 1 cbr 210 ------- 2 0.1 1.0 125 157
+ 10.132533 0 1 cbr 210 ------- 2 0.1 1.0 142 178
r 10.13264 0 1 cbr 210 ------- 2 0.1 1.0 116 145
- 10.13272 0 1 cbr 210 ------- 2 0.1 1.0 126 158
+ 10.133467 0 1 cbr 210 ------- 2 0.1 1.0 143 179
r 10.13348 0 1 cbr 210 ------- 1 0.0 1.0 29 146
- 10.13356 0 1 cbr 210 ------- 2 0.1 1.0 127 159
r 10.13432 0 1 cbr 210 ------- 2 0.1 1.0 117 147
- 10.1344 0 1 cbr 210 ------- 2 0.1 1.0 128 160
+ 10.1344 0 1 cbr 210 ------- 2 0.1 1.0 144 180
+ 10.135 0 1 cbr 210 ------- 1 0.0 1.0 36 181
r 10.13516 0 1 cbr 210 ------- 2 0.1 1.0 118 148
- 10.13524 0 1 cbr 210 ------- 1 0.0 1.0 32 161
+ 10.135333 0 1 cbr 210 ------- 2 0.1 1.0 145 182
r 10.136 0 1 cbr 210 ------- 2 0.1 1.0 119 149
- 10.13608 0 1 cbr 210 ------- 2 0.1 1.0 129 162
+ 10.136267 0 1 cbr 210 ------- 2 0.1 1.0 146 183
r 10.13684 0 1 cbr 210 ------- 2 0.1 1.0 120 150
- 10.13692 0 1 cbr 210 ------- 2 0.1 1.0 130 163
+ 10.1372 0 1 cbr 210 ------- 2 0.1 1.0 147 184
r 10.13768 0 1 cbr 210 ------- 1 0.0 1.0 30 151
- 10.13776 0 1 cbr 210 ------- 2 0.1 1.0 131 164
+ 10.138133 0 1 cbr 210 ------- 2 0.1 1.0 148 185
r 10.13852 0 1 cbr 210 ------- 2 0.1 1.0 121 152
- 10.1386 0 1 cbr 210 ------- 2 0.1 1.0 132 165
+ 10.13875 0 1 cbr 210 ------- 1 0.0 1.0 37 186
+ 10.139067 0 1 cbr 210 ------- 2 0.1 1.0 149 187
r 10.13936 0 1 cbr 210 ------- 2 0.1 1.0 122 153
- 10.13944 0 1 cbr 210 ------- 1 0.0 1.0 33 166
+ 10.14 0 1 cbr 210 ------- 2 0.1 1.0 150 188
r 10.1402 0 1 cbr 210 ------- 2 0.1 1.0 123 154
- 10.14028 0 1 cbr 210 ------- 2 0.1 1.0 133 167
+ 10.140933 0 1 cbr 210 ------- 2 0.1 1.0 151 189
r 10.14104 0 1 cbr 210 ------- 2 0.1 1.0 124 155
- 10.14112 0 1 cbr 210 ------- 2 0.1 1.0 134 168
+ 10.141867 0 1 cbr 210 ------- 2 0.1 1.0 152 190
r 10.14188 0 1 cbr 210 ------- 1 0.0 1.0 31 156
- 10.14196 0 1 cbr 210 ------- 2 0.1 1.0 135 169
+ 10.1425 0 1 cbr 210 ------- 1 0.0 1.0 38 191
r 10.14272 0 1 cbr 210 ------- 2 0.1 1.0 125 157
- 10.1428 0 1 cbr 210 ------- 2 0.1 1.0 136 170
+ 10.1428 0 1 cbr 210 ------- 2 0.1 1.0 153 192
r 10.14356 0 1 cbr 210 ------- 2 0.1 1.0 126 158
- 10.14364 0 1 cbr 210 ------- 1 0.0 1.0 34 171
+ 10.143733 0 1 cbr 210 ------- 2 0.1 1.0 154 193
r 10.1444 0 1 cbr 210 ------- 2 0.1 1.0 127 159
- 10.14448 0 1 cbr 210 ------- 2 0.1 1.0 137 172
+ 10.144667 0 1 cbr 210 ------- 2 0.1 1.0 155 194
r 10.14524 0 1 cbr 210 ------- 2 0.1 1.0 128 160
- 10.14532 0 1 cbr 210 ------- 2 0.1 1.0 138 173
+ 10.1456 0 1 cbr 210 ------- 2 0.1 1.0 156 195
r 10.14608 0 1 cbr 210 ------- 1 0.0 1.0 32 161
- 10.14616 0 1 cbr 210 ------- 2 0.1 1.0 139 174
+ 10.14625 0 1 cbr 210 ------- 1 0.0 1.0 39 196
+ 10.146533 0 1 cbr 210 ------- 2 0.1 1.0 157 197
r 10.14692 0 1 cbr 210 ------- 2 0.1 1.0 129 162
- 10.147 0 1 cbr 210 ------- 2 0.1 1.0 140 175
+ 10.147467 0 1 cbr 210 ------- 2 0.1 1.0 158 198
r 10.14776 0 1 cbr 210 ------- 2 0.1 1.0 130 163
- 10.14784 0 1 cbr 210 ------- 1 0.0 1.0 35 176
+ 10.1484 0 1 cbr 210 ------- 2 0.1 1.0 159 199
r 10.1486 0 1 cbr 210 ------- 2 0.1 1.0 131 164
- 10.14868 0 1 cbr 210 ------- 2 0.1 1.0 141 177
+ 10.149333 0 1 cbr 210 ------- 2 0.1 1.0 160 200
r 10.14944 0 1 cbr 210 ------- 2 0.1 1.0 132 165
- 10.14952 0 1 cbr 210 ------- 2 0.1 1.0 142 178
+ 10.15 0 1 cbr 210 ------- 1 0.0 1.0 40 201
+ 10.150267 0 1 cbr 210 ------- 2 0.1 1.0 161 202
r 10.15028 0 1 cbr 210 ------- 1 0.0 1.0 33 166
- 10.15036 0 1 cbr 210 ------- 2 0.1 1.0 143 179
r 10.15112 0 1 cbr 210 ------- 2 0.1 1.0 133 167
- 10.1512 0 1 cbr 210 ------- 2 0.1 1.0 144 180
+ 10.1512 0 1 cbr 210 ------- 2 0.1 1.0 162 203
r 10.15196 0 1 cbr 210 ------- 2 0.1 1.0 134 168
- 10.15204 0 1 cbr 210 ------- 1 0.0 1.0 36 181
+ 10.152133 0 1 cbr 210 ------- 2 0.1 1.0 163 204
r 10.1528 0 1 cbr 210 ------- 2 0.1 1.0 135 169
- 10.15288 0 1 cbr 210 ------- 2 0.1 1.0 145 182
+ 10.153067 0 1 cbr 210 ------- 2 0.1 1.0 164 205
r 10.15364 0 1 cbr 210 ------- 2 0.1 1.0 136 170
- 10.15372 0 1 cbr 210 ------- 2 0.1 1.0 146 183
+ 10.15375 0 1 cbr 210 ------- 1 0.0 1.0 41 206
+ 10.154 0 1 cbr 210 ------- 2 0.1 1.0 165 207
r 10.15448 0 1 cbr 210 ------- 1 0.0 1.0 34 171
- 10.15456 0 1 cbr 210 ------- 2 0.1 1.0 147 184
+ 10.154933 0 1 cbr 210 ------- 2 0.1 1.0 166 208
r 10.15532 0 1 cbr 210 ------- 2 0.1 1.0 137 172
- 10.1554 0 1 cbr 210 ------- 2 0.1 1.0 148 185
+ 10.155867 0 1 cbr 210 ------- 2 0.1 1.0 167 209
r 10.15616 0 1 cbr 210 ------- 2 0.1 1.0 138 173
- 10.15624 0 1 cbr 210 ------- 1 0.0 1.0 37 186
+ 10.1568 0 1 cbr 210 ------- 2 0.1 1.0 168 210
r 10.157 0 1 cbr 210 ------- 2 0.1 1.0 139 174
- 10.15708 0 1 cbr 210 ------- 2 0.1 1.0 149 187
+ 10.1575 0 1 cbr 210 ------- 1 0.0 1.0 42 211
+ 10.157733 0 1 cbr 210 ------- 2 0.1 1.0 169 212
r 10.15784 0 1 cbr 210 ------- 2 0.1 1.0 140 175
- 10.15792 0 1 cbr 210 ------- 2 0.1 1.0 150 188
+ 10.158667 0 1 cbr 210 ------- 2 0.1 1.0 170 213
r 10.15868 0 1 cbr 210 ------- 1 0.0 1.0 35 176
- 10.15876 0 1 cbr 210 ------- 2 0.1 1.0 151 189
r 10.15952 0 1 cbr 210 ------- 2 0.1 1.0 141 177
- 10.1596 0 1 cbr 210 ------- 2 0.1 1.0 152 190
+ 10.1596 0 1 cbr 210 ------- 2 0.1 1.0 171 214
r 10.16036 0 1 cbr 210 ------- 2 0.1 1.0 142 178
- 10.16044 0 1 cbr 210 ------- 1 0.0 1.0 38 191
+ 10.160533 0 1 cbr 210 ------- 2 0.1 1.0 172 215
r 10.1612 0 1 cbr 210 ------- 2 0.1 1.0 143 179
+ 10.16125 0 1 cbr 210 ------- 1 0.0 1.0 43 216
- 10.16128 0 1 cbr 210 ------- 2 0.1 1.0 153 192
+ 10.161467 0 1 cbr 210 ------- 2 0.1 1.0 173 217
r 10.16204 0 1 cbr 210 ------- 2 0.1 1.0 144 180
- 10.16212 0 1 cbr 210 ------- 2 0.1 1.0 154 193
+ 10.1624 0 1 cbr 210 ------- 2 0.1 1.0 174 218
r 10.16288 0 1 cbr 210 ------- 1 0.0 1.0 36 181
- 10.16296 0 1 cbr 210 ------- 2 0.1 1.0 155 194
+ 10.163333 0 1 cbr 210 ------- 2 0.1 1.0 175 219
r 10.16372 0 1 cbr 210 ------- 2 0.1 1.0 145 182
- 10.1638 0 1 cbr 210 ------- 2 0.1 1.0 156 195
+ 10.164267 0 1 cbr 210 ------- 2 0.1 1.0 176 220
r 10.16456 0 1 cbr 210 ------- 2 0.1 1.0 146 183
- 10.16464 0 1 cbr 210 ------- 1 0.0 1.0 39 196
+ 10.165 0 1 cbr 210 ------- 1 0.0 1.0 44 221
+ 10.1652 0 1 cbr 210 ------- 2 0.1 1.0 177 222
r 10.1654 0 1 cbr 210 ------- 2 0.1 1.0 147 184
- 10.16548 0 1 cbr 210 ------- 2 0.1 1.0 157 197
+ 10.166133 0 1 cbr 210 ------- 2 0.1 1.0 178 223
r 10.16624 0 1 cbr 210 ------- 2 0.1 1.0 148 185
- 10.16632 0 1 cbr 210 ------- 2 0.1 1.0 158 198
+ 10.167067 0 1 cbr 210 ------- 2 0.1 1.0 179 224
r 10.16708 0 1 cbr 210 ------- 1 0.0 1.0 37 186
- 10.16716 0 1 cbr 210 ------- 2 0.1 1.0 159 199
r 10.16792 0 1 cbr 210 ------- 2 0.1 1.0 149 187
- 10.168 0 1 cbr 210 ------- 2 0.1 1.0 160 200
+ 10.168 0 1 cbr 210 ------- 2 0.1 1.0 180 225
+ 10.16875 0 1 cbr 210 ------- 1 0.0 1.0 45 226
r 10.16876 0 1 cbr 210 ------- 2 0.1 1.0 150 188
- 10.16884 0 1 cbr 210 ------- 1 0.0 1.0 40 201
+ 10.168933 0 1 cbr 210 ------- 2 0.1 1.0 181 227
r 10.1696 0 1 cbr 210 ------- 2 0.1 1.0 151 189
- 10.16968 0 1 cbr 210 ------- 2 0.1 1.0 161 202
+ 10.169867 0 1 cbr 210 ------- 2 0.1 1.0 182 228
r 10.17044 0 1 cbr 210 ------- 2 0.1 1.0 152 190
- 10.17052 0 1 cbr 210 ------- 2 0.1 1.0 162 203
+ 10.1708 0 1 cbr 210 ------- 2 0.1 1.0 183 229
r 10.17128 0 1 cbr 210 ------- 1 0.0 1.0 38 191
- 10.17136 0 1 cbr 210 ------- 2 0.1 1.0 163 204
+ 10.171733 0 1 cbr 210 ------- 2 0.1 1.0 184 230
r 10.17212 0 1 cbr 210 ------- 2 0.1 1.0 153 192
- 10.1722 0 1 cbr 210 ------- 2 0.1 1.0 164 205
+ 10.1725 0 1 cbr 210 ------- 1 0.0 1.0 46 231